 variables=x,y,d,u,v,T,p,txx,tyy,txy,qx,qy,tzz,cf
  zone i=           41  j=           41
   0.0201165974  -0.4999734987   0.9999981990   2.7386459539  -0.0000000000   1.0000082293   1.0000064282  -0.0000144376   0.0000226669   0.0000000000  -0.0000396178   0.0000000000  -0.0000082292  67.3913457448
  -0.0200840036  -0.4983580110   0.9999981990   2.7386459539  -0.0000000000   1.0000082293   1.0000064282  -0.0000144376   0.0000226669   0.0000000000  -0.0000396178   0.0000000000  -0.0000082292  67.3913457448
  -0.0601215371  -0.4951320472   0.9999981990   2.7386459539  -0.0000000000   1.0000082293   1.0000064282  -0.0000144376   0.0000226669   0.0000000000  -0.0000396178   0.0000000000  -0.0000082292  67.3913457448
  -0.0997687969  -0.4886906886   0.9999981990   2.7386459539  -0.0000000000   1.0000082293   1.0000064282  -0.0000144376   0.0000226669   0.0000000000  -0.0000396178   0.0000000000  -0.0000082292  67.3913457448
  -0.1387689026  -0.4790786205   0.9999981990   2.7386459539  -0.0000000000   1.0000082293   1.0000064282  -0.0000144376   0.0000226669   0.0000000000  -0.0000396178   0.0000000000  -0.0000082292  67.3913457448
  -0.1768690768  -0.4663594842   0.9999981990   2.7386459539  -0.0000000000   1.0000082293   1.0000064282  -0.0000144376   0.0000226669   0.0000000000  -0.0000396178   0.0000000000  -0.0000082292  67.3913457448
  -0.2138222198  -0.4506157535   0.9999981990   2.7386459539  -0.0000000000   1.0000082293   1.0000064282  -0.0000144376   0.0000226669   0.0000000000  -0.0000396178   0.0000000000  -0.0000082292  67.3913457448
  -0.2493886837  -0.4319495705   0.9999981990   2.7386459539  -0.0000000000   1.0000082293   1.0000064282  -0.0000144376   0.0000226669   0.0000000000  -0.0000396178   0.0000000000  -0.0000082292  67.3913457448
  -0.2833378044  -0.4104819947   0.9999981990   2.7386459539  -0.0000000000   1.0000082293   1.0000064282  -0.0000144376   0.0000226669   0.0000000000  -0.0000396178   0.0000000000  -0.0000082292  67.3913457448
  -0.3154494046  -0.3863522504   0.9999981990   2.7386459539  -0.0000000000   1.0000082293   1.0000064282  -0.0000144376   0.0000226669   0.0000000000  -0.0000396178   0.0000000000  -0.0000082292  67.3913457448
  -0.3455152235  -0.3597168274   0.9999981990   2.7386459539  -0.0000000000   1.0000082293   1.0000064282  -0.0000144376   0.0000226669   0.0000000000  -0.0000396178   0.0000000000  -0.0000082292  67.3913457448
  -0.3733402673  -0.3307484665   0.9999981990   2.7386459539  -0.0000000000   1.0000082293   1.0000064282  -0.0000144376   0.0000226669   0.0000000000  -0.0000396178   0.0000000000  -0.0000082292  67.3913457448
  -0.3987440744  -0.2996350398   0.9999981990   2.7386459539  -0.0000000000   1.0000082293   1.0000064282  -0.0000144376   0.0000226669   0.0000000000  -0.0000396178   0.0000000000  -0.0000082292  67.3913457448
  -0.4215618860  -0.2665783320   0.9999981990   2.7386459539  -0.0000000000   1.0000082293   1.0000064282  -0.0000144376   0.0000226669   0.0000000000  -0.0000396178   0.0000000000  -0.0000082292  67.3913457448
  -0.4416457148  -0.2317927321   0.9999981990   2.7386459539  -0.0000000000   1.0000082293   1.0000064282  -0.0000144376   0.0000226669   0.0000000000  -0.0000396178   0.0000000000  -0.0000082292  67.3913457448
  -0.4588653056  -0.1955038425   0.9999981990   2.7386459539  -0.0000000000   1.0000082293   1.0000064282  -0.0000144376   0.0000226669   0.0000000000  -0.0000396178   0.0000000000  -0.0000082292  67.3913457448
  -0.4731089793  -0.1579470161   0.9999981990   2.7386459539  -0.0000000000   1.0000082293   1.0000064282  -0.0000144376   0.0000226669   0.0000000000  -0.0000396178   0.0000000000  -0.0000082292  67.3913457448
  -0.4842843579  -0.1193658293   0.9999981990   2.7386459539  -0.0000000000   1.0000082293   1.0000064282  -0.0000144376   0.0000226669   0.0000000000  -0.0000396178   0.0000000000  -0.0000082292  67.3913457448
  -0.4923189634  -0.0800105024   0.9999981990   2.7386459539  -0.0000000000   1.0000082293   1.0000064282  -0.0000144376   0.0000226669   0.0000000000  -0.0000396178   0.0000000000  -0.0000082292  67.3913457448
  -0.4971606874  -0.0401362764   0.9999981990   2.7386459539  -0.0000000000   1.0000082293   1.0000064282  -0.0000144376   0.0000226669   0.0000000000  -0.0000396178   0.0000000000  -0.0000082292  67.3913457448
  -0.4987763259  -0.0000017989   0.9999981990   2.7386459539  -0.0000000000   1.0000082293   1.0000064282  -0.0000144376   0.0000226669   0.0000000000  -0.0000396178   0.0000000000  -0.0000082292  67.3913457448
  -0.4971536842   0.0401324277   0.9999981990   2.7386459539  -0.0000000000   1.0000082293   1.0000064282  -0.0000144376   0.0000226669   0.0000000000  -0.0000396178   0.0000000000  -0.0000082292  67.3913457448
  -0.4923117007   0.0800069763   0.9999981990   2.7386459539  -0.0000000000   1.0000082293   1.0000064282  -0.0000144376   0.0000226669   0.0000000000  -0.0000396178   0.0000000000  -0.0000082292  67.3913457448
  -0.4842889415   0.1193650204   0.9999981990   2.7386459539  -0.0000000000   1.0000082293   1.0000064282  -0.0000144376   0.0000226669   0.0000000000  -0.0000396178   0.0000000000  -0.0000082292  67.3913457448
  -0.4731255311   0.1579493575   0.9999981990   2.7386459539  -0.0000000000   1.0000082293   1.0000064282  -0.0000144376   0.0000226669   0.0000000000  -0.0000396178   0.0000000000  -0.0000082292  67.3913457448
  -0.4588762799   0.1955033504   0.9999981990   2.7386459539  -0.0000000000   1.0000082293   1.0000064282  -0.0000144376   0.0000226669   0.0000000000  -0.0000396178   0.0000000000  -0.0000082292  67.3913457448
  -0.4416401401   0.2317844342   0.9999981990   2.7386459539  -0.0000000000   1.0000082293   1.0000064282  -0.0000144376   0.0000226669   0.0000000000  -0.0000396178   0.0000000000  -0.0000082292  67.3913457448
  -0.4215487790   0.2665662181   0.9999981990   2.7386459539  -0.0000000000   1.0000082293   1.0000064282  -0.0000144376   0.0000226669   0.0000000000  -0.0000396178   0.0000000000  -0.0000082292  67.3913457448
  -0.3987351163   0.2996260895   0.9999981990   2.7386459539  -0.0000000000   1.0000082293   1.0000064282  -0.0000144376   0.0000226669   0.0000000000  -0.0000396178   0.0000000000  -0.0000082292  67.3913457448
  -0.3733342702   0.3307415271   0.9999981990   2.7386459539  -0.0000000000   1.0000082293   1.0000064282  -0.0000144376   0.0000226669   0.0000000000  -0.0000396178   0.0000000000  -0.0000082292  67.3913457448
  -0.3455066045   0.3597073081   0.9999981990   2.7386459539  -0.0000000000   1.0000082293   1.0000064282  -0.0000144376   0.0000226669   0.0000000000  -0.0000396178   0.0000000000  -0.0000082292  67.3913457448
  -0.3154418735   0.3863444650   0.9999981990   2.7386459539  -0.0000000000   1.0000082293   1.0000064282  -0.0000144376   0.0000226669   0.0000000000  -0.0000396178   0.0000000000  -0.0000082292  67.3913457448
  -0.2833374201   0.4104840216   0.9999981990   2.7386459539  -0.0000000000   1.0000082293   1.0000064282  -0.0000144376   0.0000226669   0.0000000000  -0.0000396178   0.0000000000  -0.0000082292  67.3913457448
  -0.2493928207   0.4319579452   0.9999981990   2.7386459539  -0.0000000000   1.0000082293   1.0000064282  -0.0000144376   0.0000226669   0.0000000000  -0.0000396178   0.0000000000  -0.0000082292  67.3913457448
  -0.2138232760   0.4506174509   0.9999981990   2.7386459539  -0.0000000000   1.0000082293   1.0000064282  -0.0000144376   0.0000226669   0.0000000000  -0.0000396178   0.0000000000  -0.0000082292  67.3913457448
  -0.1768663629   0.4663530609   0.9999981990   2.7386459539  -0.0000000000   1.0000082293   1.0000064282  -0.0000144376   0.0000226669   0.0000000000  -0.0000396178   0.0000000000  -0.0000082292  67.3913457448
  -0.1387671362   0.4790762958   0.9999981990   2.7386459539  -0.0000000000   1.0000082293   1.0000064282  -0.0000144376   0.0000226669   0.0000000000  -0.0000396178   0.0000000000  -0.0000082292  67.3913457448
  -0.0997695647   0.4886982274   0.9999981990   2.7386459539  -0.0000000000   1.0000082293   1.0000064282  -0.0000144376   0.0000226669   0.0000000000  -0.0000396178   0.0000000000  -0.0000082292  67.3913457448
  -0.0601225842   0.4951382264   0.9999981990   2.7386459539  -0.0000000000   1.0000082293   1.0000064282  -0.0000144376   0.0000226669   0.0000000000  -0.0000396178   0.0000000000  -0.0000082292  67.3913457448
  -0.0200842077   0.4983546118   0.9999981990   2.7386459539  -0.0000000000   1.0000082293   1.0000064282  -0.0000144376   0.0000226669   0.0000000000  -0.0000396178   0.0000000000  -0.0000082292  67.3913457448
   0.0201168018   0.4999619980   0.9999981990   2.7386459539  -0.0000000000   1.0000082293   1.0000064282  -0.0000144376   0.0000226669   0.0000000000  -0.0000396178   0.0000000000  -0.0000082292  67.3913457448
   0.0201491911  -0.5016536910   0.9999981990   2.7386459539  -0.0000000000   1.0000082293   1.0000064282  -0.0000144376   0.0000226669   0.0000000000  -0.0000396178   0.0000000000  -0.0000082292  67.3913457448
  -0.0201491911  -0.5000206503   0.9999981990   2.7386459539  -0.0000000000   1.0000082293   1.0000064282  -0.0000144376   0.0000226669   0.0000000000  -0.0000396178   0.0000000000  -0.0000082292  67.3913457448
  -0.0603171207  -0.4967717743   0.9999981990   2.7386459539  -0.0000000000   1.0000082293   1.0000064282  -0.0000144376   0.0000226669   0.0000000000  -0.0000396178   0.0000000000  -0.0000082292  67.3913457448
  -0.1000942364  -0.4903054448   0.9999981990   2.7386459539  -0.0000000000   1.0000082293   1.0000064282  -0.0000144376   0.0000226669   0.0000000000  -0.0000396178   0.0000000000  -0.0000082292  67.3913457448
  -0.1392223236  -0.4806606876   0.9999981990   2.7386459539  -0.0000000000   1.0000082293   1.0000064282  -0.0000144376   0.0000226669   0.0000000000  -0.0000396178   0.0000000000  -0.0000082292  67.3913457448
  -0.1774474706  -0.4678987487   0.9999981990   2.7386459539  -0.0000000000   1.0000082293   1.0000064282  -0.0000144376   0.0000226669   0.0000000000  -0.0000396178   0.0000000000  -0.0000082292  67.3913457448
  -0.2145217802  -0.4521024080   0.9999981990   2.7386459539  -0.0000000000   1.0000082293   1.0000064282  -0.0000144376   0.0000226669   0.0000000000  -0.0000396178   0.0000000000  -0.0000082292  67.3913457448
  -0.2502048060  -0.4333740720   0.9999981990   2.7386459539  -0.0000000000   1.0000082293   1.0000064282  -0.0000144376   0.0000226669   0.0000000000  -0.0000396178   0.0000000000  -0.0000082292  67.3913457448
  -0.2842651341  -0.4118351980   0.9999981990   2.7386459539  -0.0000000000   1.0000082293   1.0000064282  -0.0000144376   0.0000226669   0.0000000000  -0.0000396178   0.0000000000  -0.0000082292  67.3913457448
  -0.3164818763  -0.3876254738   0.9999981990   2.7386459539  -0.0000000000   1.0000082293   1.0000064282  -0.0000144376   0.0000226669   0.0000000000  -0.0000396178   0.0000000000  -0.0000082292  67.3913457448
  -0.3466461011  -0.3609019082   0.9999981990   2.7386459539  -0.0000000000   1.0000082293   1.0000064282  -0.0000144376   0.0000226669   0.0000000000  -0.0000396178   0.0000000000  -0.0000082292  67.3913457448
  -0.3745621893  -0.3318378122   0.9999981990   2.7386459539  -0.0000000000   1.0000082293   1.0000064282  -0.0000144376   0.0000226669   0.0000000000  -0.0000396178   0.0000000000  -0.0000082292  67.3913457448
  -0.4000491014  -0.3006216749   0.9999981990   2.7386459539  -0.0000000000   1.0000082293   1.0000064282  -0.0000144376   0.0000226669   0.0000000000  -0.0000396178   0.0000000000  -0.0000082292  67.3913457448
  -0.4229415519  -0.2674559410   0.9999981990   2.7386459539  -0.0000000000   1.0000082293   1.0000064282  -0.0000144376   0.0000226669   0.0000000000  -0.0000396178   0.0000000000  -0.0000082292  67.3913457448
  -0.4430910806  -0.2325556975   0.9999981990   2.7386459539  -0.0000000000   1.0000082293   1.0000064282  -0.0000144376   0.0000226669   0.0000000000  -0.0000396178   0.0000000000  -0.0000082292  67.3913457448
  -0.4603670155  -0.1961472793   0.9999981990   2.7386459539  -0.0000000000   1.0000082293   1.0000064282  -0.0000144376   0.0000226669   0.0000000000  -0.0000396178   0.0000000000  -0.0000082292  67.3913457448
  -0.4746573196  -0.1584668015   0.9999981990   2.7386459539  -0.0000000000   1.0000082293   1.0000064282  -0.0000144376   0.0000226669   0.0000000000  -0.0000396178   0.0000000000  -0.0000082292  67.3913457448
  -0.4858693181  -0.1197586281   0.9999981990   2.7386459539  -0.0000000000   1.0000082293   1.0000064282  -0.0000144376   0.0000226669   0.0000000000  -0.0000396178   0.0000000000  -0.0000082292  67.3913457448
  -0.4939302990  -0.0802737880   0.9999981990   2.7386459539  -0.0000000000   1.0000082293   1.0000064282  -0.0000144376   0.0000226669   0.0000000000  -0.0000396178   0.0000000000  -0.0000082292  67.3913457448
  -0.4987879849  -0.0402683464   0.9999981990   2.7386459539  -0.0000000000   1.0000082293   1.0000064282  -0.0000144376   0.0000226669   0.0000000000  -0.0000396178   0.0000000000  -0.0000082292  67.3913457448
  -0.5004089848  -0.0000017897   0.9999981990   2.7386459539  -0.0000000000   1.0000082293   1.0000064282  -0.0000144376   0.0000226669   0.0000000000  -0.0000396178   0.0000000000  -0.0000082292  67.3913457448
  -0.4987809856   0.0402645162   0.9999981990   2.7386459539  -0.0000000000   1.0000082293   1.0000064282  -0.0000144376   0.0000226669   0.0000000000  -0.0000396178   0.0000000000  -0.0000082292  67.3913457448
  -0.4939230411   0.0802702802   0.9999981990   2.7386459539  -0.0000000000   1.0000082293   1.0000064282  -0.0000144376   0.0000226669   0.0000000000  -0.0000396178   0.0000000000  -0.0000082292  67.3913457448
  -0.4858739018   0.1197578364   0.9999981990   2.7386459539  -0.0000000000   1.0000082293   1.0000064282  -0.0000144376   0.0000226669   0.0000000000  -0.0000396178   0.0000000000  -0.0000082292  67.3913457448
  -0.4746738669   0.1584691588   0.9999981990   2.7386459539  -0.0000000000   1.0000082293   1.0000064282  -0.0000144376   0.0000226669   0.0000000000  -0.0000396178   0.0000000000  -0.0000082292  67.3913457448
  -0.4603779884   0.1961468046   0.9999981990   2.7386459539  -0.0000000000   1.0000082293   1.0000064282  -0.0000144376   0.0000226669   0.0000000000  -0.0000396178   0.0000000000  -0.0000082292  67.3913457448
  -0.4430855123   0.2325474207   0.9999981990   2.7386459539  -0.0000000000   1.0000082293   1.0000064282  -0.0000144376   0.0000226669   0.0000000000  -0.0000396178   0.0000000000  -0.0000082292  67.3913457448
  -0.4229284552   0.2674438501   0.9999981990   2.7386459539  -0.0000000000   1.0000082293   1.0000064282  -0.0000144376   0.0000226669   0.0000000000  -0.0000396178   0.0000000000  -0.0000082292  67.3913457448
  -0.4000401522   0.3006127465   0.9999981990   2.7386459539  -0.0000000000   1.0000082293   1.0000064282  -0.0000144376   0.0000226669   0.0000000000  -0.0000396178   0.0000000000  -0.0000082292  67.3913457448
  -0.3745562002   0.3318308941   0.9999981990   2.7386459539  -0.0000000000   1.0000082293   1.0000064282  -0.0000144376   0.0000226669   0.0000000000  -0.0000396178   0.0000000000  -0.0000082292  67.3913457448
  -0.3466374916   0.3608924117   0.9999981990   2.7386459539  -0.0000000000   1.0000082293   1.0000064282  -0.0000144376   0.0000226669   0.0000000000  -0.0000396178   0.0000000000  -0.0000082292  67.3913457448
  -0.3164743543   0.3876177108   0.9999981990   2.7386459539  -0.0000000000   1.0000082293   1.0000064282  -0.0000144376   0.0000226669   0.0000000000  -0.0000396178   0.0000000000  -0.0000082292  67.3913457448
  -0.2842647559   0.4118372432   0.9999981990   2.7386459539  -0.0000000000   1.0000082293   1.0000064282  -0.0000144376   0.0000226669   0.0000000000  -0.0000396178   0.0000000000  -0.0000082292  67.3913457448
  -0.2502089468   0.4333824625   0.9999981990   2.7386459539  -0.0000000000   1.0000082293   1.0000064282  -0.0000144376   0.0000226669   0.0000000000  -0.0000396178   0.0000000000  -0.0000082292  67.3913457448
  -0.2145228412   0.4521041243   0.9999981990   2.7386459539  -0.0000000000   1.0000082293   1.0000064282  -0.0000144376   0.0000226669   0.0000000000  -0.0000396178   0.0000000000  -0.0000082292  67.3913457448
  -0.1774447627   0.4678923479   0.9999981990   2.7386459539  -0.0000000000   1.0000082293   1.0000064282  -0.0000144376   0.0000226669   0.0000000000  -0.0000396178   0.0000000000  -0.0000082292  67.3913457448
  -0.1392205620   0.4806583835   0.9999981990   2.7386459539  -0.0000000000   1.0000082293   1.0000064282  -0.0000144376   0.0000226669   0.0000000000  -0.0000396178   0.0000000000  -0.0000082292  67.3913457448
  -0.1000950069   0.4903129996   0.9999981990   2.7386459539  -0.0000000000   1.0000082293   1.0000064282  -0.0000144376   0.0000226669   0.0000000000  -0.0000396178   0.0000000000  -0.0000082292  67.3913457448
  -0.0603181693   0.4967779695   0.9999981990   2.7386459539  -0.0000000000   1.0000082293   1.0000064282  -0.0000144376   0.0000226669   0.0000000000  -0.0000396178   0.0000000000  -0.0000082292  67.3913457448
  -0.0201493958   0.5000172705   0.9999981990   2.7386459539  -0.0000000000   1.0000082293   1.0000064282  -0.0000144376   0.0000226669   0.0000000000  -0.0000396178   0.0000000000  -0.0000082292  67.3913457448
   0.0201493958   0.5016422115   0.9999981990   2.7386459539  -0.0000000000   1.0000082293   1.0000064282  -0.0000144376   0.0000226669   0.0000000000  -0.0000396178   0.0000000000  -0.0000082292  67.3913457448
   0.0202195420  -0.5034732809   0.9999981990   2.7386459539  -0.0000000000   1.0000082293   1.0000064282  -0.0000144376   0.0000226669   0.0000000000  -0.0000396178   0.0000000000  -0.0000082292  67.3913457448
  -0.0202195420  -0.5018149823   0.9999981990   2.7386459539  -0.0000000000   1.0000082293   1.0000064282  -0.0000144376   0.0000226669   0.0000000000  -0.0000396178   0.0000000000  -0.0000082292  67.3913457448
  -0.0605281960  -0.4985413791   0.9999981990   2.7386459539  -0.0000000000   1.0000082293   1.0000064282  -0.0000144376   0.0000226669   0.0000000000  -0.0000396178   0.0000000000  -0.0000082292  67.3913457448
  -0.1004454530  -0.4920481007   0.9999981990   2.7386459539  -0.0000000000   1.0000082293   1.0000064282  -0.0000144376   0.0000226669   0.0000000000  -0.0000396178   0.0000000000  -0.0000082292  67.3913457448
  -0.1397116590  -0.4823680652   0.9999981990   2.7386459539  -0.0000000000   1.0000082293   1.0000064282  -0.0000144376   0.0000226669   0.0000000000  -0.0000396178   0.0000000000  -0.0000082292  67.3913457448
  -0.1780716775  -0.4695599334   0.9999981990   2.7386459539  -0.0000000000   1.0000082293   1.0000064282  -0.0000144376   0.0000226669   0.0000000000  -0.0000396178   0.0000000000  -0.0000082292  67.3913457448
  -0.2152767510  -0.4537068154   0.9999981990   2.7386459539  -0.0000000000   1.0000082293   1.0000064282  -0.0000144376   0.0000226669   0.0000000000  -0.0000396178   0.0000000000  -0.0000082292  67.3913457448
  -0.2510855714  -0.4349114035   0.9999981990   2.7386459539  -0.0000000000   1.0000082293   1.0000064282  -0.0000144376   0.0000226669   0.0000000000  -0.0000396178   0.0000000000  -0.0000082292  67.3913457448
  -0.2852659156  -0.4132955839   0.9999981990   2.7386459539  -0.0000000000   1.0000082293   1.0000064282  -0.0000144376   0.0000226669   0.0000000000  -0.0000396178   0.0000000000  -0.0000082292  67.3913457448
  -0.3175961277  -0.3889995447   0.9999981990   2.7386459539  -0.0000000000   1.0000082293   1.0000064282  -0.0000144376   0.0000226669   0.0000000000  -0.0000396178   0.0000000000  -0.0000082292  67.3913457448
  -0.3478665531  -0.3621808547   0.9999981990   2.7386459539  -0.0000000000   1.0000082293   1.0000064282  -0.0000144376   0.0000226669   0.0000000000  -0.0000396178   0.0000000000  -0.0000082292  67.3913457448
  -0.3758808971  -0.3330134406   0.9999981990   2.7386459539  -0.0000000000   1.0000082293   1.0000064282  -0.0000144376   0.0000226669   0.0000000000  -0.0000396178   0.0000000000  -0.0000082292  67.3913457448
  -0.4014574969  -0.3016864573   0.9999981990   2.7386459539  -0.0000000000   1.0000082293   1.0000064282  -0.0000144376   0.0000226669   0.0000000000  -0.0000396178   0.0000000000  -0.0000082292  67.3913457448
  -0.4244304984  -0.2684030615   0.9999981990   2.7386459539  -0.0000000000   1.0000082293   1.0000064282  -0.0000144376   0.0000226669   0.0000000000  -0.0000396178   0.0000000000  -0.0000082292  67.3913457448
  -0.4446509311  -0.2333790937   0.9999981990   2.7386459539  -0.0000000000   1.0000082293   1.0000064282  -0.0000144376   0.0000226669   0.0000000000  -0.0000396178   0.0000000000  -0.0000082292  67.3913457448
  -0.4619876731  -0.1968416792   0.9999981990   2.7386459539  -0.0000000000   1.0000082293   1.0000064282  -0.0000144376   0.0000226669   0.0000000000  -0.0000396178   0.0000000000  -0.0000082292  67.3913457448
  -0.4763283014  -0.1590277557   0.9999981990   2.7386459539  -0.0000000000   1.0000082293   1.0000064282  -0.0000144376   0.0000226669   0.0000000000  -0.0000396178   0.0000000000  -0.0000082292  67.3913457448
  -0.4875798205  -0.1201825373   0.9999981990   2.7386459539  -0.0000000000   1.0000082293   1.0000064282  -0.0000144376   0.0000226669   0.0000000000  -0.0000396178   0.0000000000  -0.0000082292  67.3913457448
  -0.4956692661  -0.0805579254   0.9999981990   2.7386459539  -0.0000000000   1.0000082293   1.0000064282  -0.0000144376   0.0000226669   0.0000000000  -0.0000396178   0.0000000000  -0.0000082292  67.3913457448
  -0.5005441782  -0.0404108751   0.9999981990   2.7386459539  -0.0000000000   1.0000082293   1.0000064282  -0.0000144376   0.0000226669   0.0000000000  -0.0000396178   0.0000000000  -0.0000082292  67.3913457448
  -0.5021709643  -0.0000017773   0.9999981990   2.7386459539  -0.0000000000   1.0000082293   1.0000064282  -0.0000144376   0.0000226669   0.0000000000  -0.0000396178   0.0000000000  -0.0000082292  67.3913457448
  -0.5005371834   0.0404070698   0.9999981990   2.7386459539  -0.0000000000   1.0000082293   1.0000064282  -0.0000144376   0.0000226669   0.0000000000  -0.0000396178   0.0000000000  -0.0000082292  67.3913457448
  -0.4956620138   0.0805544425   0.9999981990   2.7386459539  -0.0000000000   1.0000082293   1.0000064282  -0.0000144376   0.0000226669   0.0000000000  -0.0000396178   0.0000000000  -0.0000082292  67.3913457448
  -0.4875844050   0.1201817694   0.9999981990   2.7386459539  -0.0000000000   1.0000082293   1.0000064282  -0.0000144376   0.0000226669   0.0000000000  -0.0000396178   0.0000000000  -0.0000082292  67.3913457448
  -0.4763448448   0.1590301355   0.9999981990   2.7386459539  -0.0000000000   1.0000082293   1.0000064282  -0.0000144376   0.0000226669   0.0000000000  -0.0000396178   0.0000000000  -0.0000082292  67.3913457448
  -0.4619986457   0.1968412285   0.9999981990   2.7386459539  -0.0000000000   1.0000082293   1.0000064282  -0.0000144376   0.0000226669   0.0000000000  -0.0000396178   0.0000000000  -0.0000082292  67.3913457448
  -0.4446453711   0.2333708449   0.9999981990   2.7386459539  -0.0000000000   1.0000082293   1.0000064282  -0.0000144376   0.0000226669   0.0000000000  -0.0000396178   0.0000000000  -0.0000082292  67.3913457448
  -0.4244174144   0.2683910008   0.9999981990   2.7386459539  -0.0000000000   1.0000082293   1.0000064282  -0.0000144376   0.0000226669   0.0000000000  -0.0000396178   0.0000000000  -0.0000082292  67.3913457448
  -0.4014485590   0.3016775580   0.9999981990   2.7386459539  -0.0000000000   1.0000082293   1.0000064282  -0.0000144376   0.0000226669   0.0000000000  -0.0000396178   0.0000000000  -0.0000082292  67.3913457448
  -0.3758749184   0.3330065510   0.9999981990   2.7386459539  -0.0000000000   1.0000082293   1.0000064282  -0.0000144376   0.0000226669   0.0000000000  -0.0000396178   0.0000000000  -0.0000082292  67.3913457448
  -0.3478579556   0.3621713885   0.9999981990   2.7386459539  -0.0000000000   1.0000082293   1.0000064282  -0.0000144376   0.0000226669   0.0000000000  -0.0000396178   0.0000000000  -0.0000082292  67.3913457448
  -0.3175886174   0.3889918114   0.9999981990   2.7386459539  -0.0000000000   1.0000082293   1.0000064282  -0.0000144376   0.0000226669   0.0000000000  -0.0000396178   0.0000000000  -0.0000082292  67.3913457448
  -0.2852655455   0.4132976546   0.9999981990   2.7386459539  -0.0000000000   1.0000082293   1.0000064282  -0.0000144376   0.0000226669   0.0000000000  -0.0000396178   0.0000000000  -0.0000082292  67.3913457448
  -0.2510897180   0.4349198167   0.9999981990   2.7386459539  -0.0000000000   1.0000082293   1.0000064282  -0.0000144376   0.0000226669   0.0000000000  -0.0000396178   0.0000000000  -0.0000082292  67.3913457448
  -0.2152778187   0.4537085578   0.9999981990   2.7386459539  -0.0000000000   1.0000082293   1.0000064282  -0.0000144376   0.0000226669   0.0000000000  -0.0000396178   0.0000000000  -0.0000082292  67.3913457448
  -0.1780689773   0.4695535626   0.9999981990   2.7386459539  -0.0000000000   1.0000082293   1.0000064282  -0.0000144376   0.0000226669   0.0000000000  -0.0000396178   0.0000000000  -0.0000082292  67.3913457448
  -0.1397099036   0.4823657890   0.9999981990   2.7386459539  -0.0000000000   1.0000082293   1.0000064282  -0.0000144376   0.0000226669   0.0000000000  -0.0000396178   0.0000000000  -0.0000082292  67.3913457448
  -0.1004462273   0.4920556783   0.9999981990   2.7386459539  -0.0000000000   1.0000082293   1.0000064282  -0.0000144376   0.0000226669   0.0000000000  -0.0000396178   0.0000000000  -0.0000082292  67.3913457448
  -0.0605292468   0.4985475971   0.9999981990   2.7386459539  -0.0000000000   1.0000082293   1.0000064282  -0.0000144376   0.0000226669   0.0000000000  -0.0000396178   0.0000000000  -0.0000082292  67.3913457448
  -0.0202197475   0.5018116286   0.9999981990   2.7386459539  -0.0000000000   1.0000082293   1.0000064282  -0.0000144376   0.0000226669   0.0000000000  -0.0000396178   0.0000000000  -0.0000082292  67.3913457448
   0.0202197475   0.5034618301   0.9999981990   2.7386459539  -0.0000000000   1.0000082293   1.0000064282  -0.0000144376   0.0000226669   0.0000000000  -0.0000396178   0.0000000000  -0.0000082292  67.3913457448
   0.0203013900  -0.5055902393   0.9999981990   2.7386459539  -0.0000000000   1.0000082293   1.0000064282  -0.0000144376   0.0000226669   0.0000000000  -0.0000396178   0.0000000000  -0.0000082292  67.3913457448
  -0.0203013900  -0.5039025548   0.9999981990   2.7386459539  -0.0000000000   1.0000082293   1.0000064282  -0.0000144376   0.0000226669   0.0000000000  -0.0000396178   0.0000000000  -0.0000082292  67.3913457448
  -0.0607737665  -0.5006001832   0.9999981990   2.7386459539  -0.0000000000   1.0000082293   1.0000064282  -0.0000144376   0.0000226669   0.0000000000  -0.0000396178   0.0000000000  -0.0000082292  67.3913457448
  -0.1008540677  -0.4940755514   0.9999981990   2.7386459539  -0.0000000000   1.0000082293   1.0000064282  -0.0000144376   0.0000226669   0.0000000000  -0.0000396178   0.0000000000  -0.0000082292  67.3913457448
  -0.1402809648  -0.4843544720   0.9999981990   2.7386459539  -0.0000000000   1.0000082293   1.0000064282  -0.0000144376   0.0000226669   0.0000000000  -0.0000396178   0.0000000000  -0.0000082292  67.3913457448
  -0.1787978966  -0.4714925978   0.9999981990   2.7386459539  -0.0000000000   1.0000082293   1.0000064282  -0.0000144376   0.0000226669   0.0000000000  -0.0000396178   0.0000000000  -0.0000082292  67.3913457448
  -0.2161551044  -0.4555734235   0.9999981990   2.7386459539  -0.0000000000   1.0000082293   1.0000064282  -0.0000144376   0.0000226669   0.0000000000  -0.0000396178   0.0000000000  -0.0000082292  67.3913457448
  -0.2521102778  -0.4366999734   0.9999981990   2.7386459539  -0.0000000000   1.0000082293   1.0000064282  -0.0000144376   0.0000226669   0.0000000000  -0.0000396178   0.0000000000  -0.0000082292  67.3913457448
  -0.2864302520  -0.4149946330   0.9999981990   2.7386459539  -0.0000000000   1.0000082293   1.0000064282  -0.0000144376   0.0000226669   0.0000000000  -0.0000396178   0.0000000000  -0.0000082292  67.3913457448
  -0.3188924785  -0.3905981724   0.9999981990   2.7386459539  -0.0000000000   1.0000082293   1.0000064282  -0.0000144376   0.0000226669   0.0000000000  -0.0000396178   0.0000000000  -0.0000082292  67.3913457448
  -0.3492864607  -0.3636688122   0.9999981990   2.7386459539  -0.0000000000   1.0000082293   1.0000064282  -0.0000144376   0.0000226669   0.0000000000  -0.0000396178   0.0000000000  -0.0000082292  67.3913457448
  -0.3774151185  -0.3343811947   0.9999981990   2.7386459539  -0.0000000000   1.0000082293   1.0000064282  -0.0000144376   0.0000226669   0.0000000000  -0.0000396178   0.0000000000  -0.0000082292  67.3913457448
  -0.4030960636  -0.3029252500   0.9999981990   2.7386459539  -0.0000000000   1.0000082293   1.0000064282  -0.0000144376   0.0000226669   0.0000000000  -0.0000396178   0.0000000000  -0.0000082292  67.3913457448
  -0.4261627808  -0.2695049630   0.9999981990   2.7386459539  -0.0000000000   1.0000082293   1.0000064282  -0.0000144376   0.0000226669   0.0000000000  -0.0000396178   0.0000000000  -0.0000082292  67.3913457448
  -0.4464657054  -0.2343370509   0.9999981990   2.7386459539  -0.0000000000   1.0000082293   1.0000064282  -0.0000144376   0.0000226669   0.0000000000  -0.0000396178   0.0000000000  -0.0000082292  67.3913457448
  -0.4638731925  -0.1976495584   0.9999981990   2.7386459539  -0.0000000000   1.0000082293   1.0000064282  -0.0000144376   0.0000226669   0.0000000000  -0.0000396178   0.0000000000  -0.0000082292  67.3913457448
  -0.4782723694  -0.1596803802   0.9999981990   2.7386459539  -0.0000000000   1.0000082293   1.0000064282  -0.0000144376   0.0000226669   0.0000000000  -0.0000396178   0.0000000000  -0.0000082292  67.3913457448
  -0.4895698682  -0.1206757198   0.9999981990   2.7386459539  -0.0000000000   1.0000082293   1.0000064282  -0.0000144376   0.0000226669   0.0000000000  -0.0000396178   0.0000000000  -0.0000082292  67.3913457448