 variables=x,y,d,u,v,T,p,txx,tyy,txy,qx,qy,tzz
  zone i=           39  j=           39
   0.0025000000   0.0025000000   0.0000000000   0.0000000000   0.0000000000   0.0000000000   0.0000000000   0.0000000000   0.0000000000   0.0000000000   0.0000000000   0.0000000000   0.0000000000
   0.0079960748   0.0025000000   0.0000000000   0.0000000000   0.0000000000   0.0000000000   0.0000000000   0.0000000000   0.0000000000   0.0000000000   0.0000000000   0.0000000000   0.0000000000
   0.0145748338   0.0025000000   0.0000000000   0.0000000000   0.0000000000   0.0000000000   0.0000000000   0.0000000000   0.0000000000   0.0000000000   0.0000000000   0.0000000000   0.0000000000
   0.0224303973   0.0025000000   0.0000000000   0.0000000000   0.0000000000   0.0000000000   0.0000000000   0.0000000000   0.0000000000   0.0000000000   0.0000000000   0.0000000000   0.0000000000
   0.0317833366   0.0025000000   0.0000000000   0.0000000000   0.0000000000   0.0000000000   0.0000000000   0.0000000000   0.0000000000   0.0000000000   0.0000000000   0.0000000000   0.0000000000
   0.0428806198   0.0025000000   0.0000000000   0.0000000000   0.0000000000   0.0000000000   0.0000000000   0.0000000000   0.0000000000   0.0000000000   0.0000000000   0.0000000000   0.0000000000
   0.0559936858   0.0025000000   0.0000000000   0.0000000000   0.0000000000   0.0000000000   0.0000000000   0.0000000000   0.0000000000   0.0000000000   0.0000000000   0.0000000000   0.0000000000
   0.0714138602   0.0025000000   0.0000000000   0.0000000000   0.0000000000   0.0000000000   0.0000000000   0.0000000000   0.0000000000   0.0000000000   0.0000000000   0.0000000000   0.0000000000
   0.0894442226   0.0025000000   0.0000000000   0.0000000000   0.0000000000   0.0000000000   0.0000000000   0.0000000000   0.0000000000   0.0000000000   0.0000000000   0.0000000000   0.0000000000
   0.1103870411   0.0025000000   0.0000000000   0.0000000000   0.0000000000   0.0000000000   0.0000000000   0.0000000000   0.0000000000   0.0000000000   0.0000000000   0.0000000000   0.0000000000
   0.1345260708   0.0025000000   0.0000000000   0.0000000000   0.0000000000   0.0000000000   0.0000000000   0.0000000000   0.0000000000   0.0000000000   0.0000000000   0.0000000000   0.0000000000
   0.1621034798   0.0025000000   0.0000000000   0.0000000000   0.0000000000   0.0000000000   0.0000000000   0.0000000000   0.0000000000   0.0000000000   0.0000000000   0.0000000000   0.0000000000
   0.1932919750   0.0025000000   0.0000000000   0.0000000000   0.0000000000   0.0000000000   0.0000000000   0.0000000000   0.0000000000   0.0000000000   0.0000000000   0.0000000000   0.0000000000
   0.2281638789   0.0025000000   0.0000000000   0.0000000000   0.0000000000   0.0000000000   0.0000000000   0.0000000000   0.0000000000   0.0000000000   0.0000000000   0.0000000000   0.0000000000
   0.2666603307   0.0025000000   0.0000000000   0.0000000000   0.0000000000   0.0000000000   0.0000000000   0.0000000000   0.0000000000   0.0000000000   0.0000000000   0.0000000000   0.0000000000
   0.3085651711   0.0025000000   0.0000000000   0.0000000000   0.0000000000   0.0000000000   0.0000000000   0.0000000000   0.0000000000   0.0000000000   0.0000000000   0.0000000000   0.0000000000
   0.3534889397   0.0025000000   0.0000000000   0.0000000000   0.0000000000   0.0000000000   0.0000000000   0.0000000000   0.0000000000   0.0000000000   0.0000000000   0.0000000000   0.0000000000
   0.4008682421   0.0025000000   0.0000000000   0.0000000000   0.0000000000   0.0000000000   0.0000000000   0.0000000000   0.0000000000   0.0000000000   0.0000000000   0.0000000000   0.0000000000
   0.4499841204   0.0025000000   0.0000000000   0.0000000000   0.0000000000   0.0000000000   0.0000000000   0.0000000000   0.0000000000   0.0000000000   0.0000000000   0.0000000000   0.0000000000
   0.5000000000   0.0025000000   0.0000000000   0.0000000000   0.0000000000   0.0000000000   0.0000000000   0.0000000000   0.0000000000   0.0000000000   0.0000000000   0.0000000000   0.0000000000
   0.5500158796   0.0025000000   0.0000000000   0.0000000000   0.0000000000   0.0000000000   0.0000000000   0.0000000000   0.0000000000   0.0000000000   0.0000000000   0.0000000000   0.0000000000
   0.5991317579   0.0025000000   0.0000000000   0.0000000000   0.0000000000   0.0000000000   0.0000000000   0.0000000000   0.0000000000   0.0000000000   0.0000000000   0.0000000000   0.0000000000
   0.6465110603   0.0025000000   0.0000000000   0.0000000000   0.0000000000   0.0000000000   0.0000000000   0.0000000000   0.0000000000   0.0000000000   0.0000000000   0.0000000000   0.0000000000
   0.6914348289   0.0025000000   0.0000000000   0.0000000000   0.0000000000   0.0000000000   0.0000000000   0.0000000000   0.0000000000   0.0000000000   0.0000000000   0.0000000000   0.0000000000
   0.7333396693   0.0025000000   0.0000000000   0.0000000000   0.0000000000   0.0000000000   0.0000000000   0.0000000000   0.0000000000   0.0000000000   0.0000000000   0.0000000000   0.0000000000
   0.7718361211   0.0025000000   0.0000000000   0.0000000000   0.0000000000   0.0000000000   0.0000000000   0.0000000000   0.0000000000   0.0000000000   0.0000000000   0.0000000000   0.0000000000
   0.8067080250   0.0025000000   0.0000000000   0.0000000000   0.0000000000   0.0000000000   0.0000000000   0.0000000000   0.0000000000   0.0000000000   0.0000000000   0.0000000000   0.0000000000
   0.8378965202   0.0025000000   0.0000000000   0.0000000000   0.0000000000   0.0000000000   0.0000000000   0.0000000000   0.0000000000   0.0000000000   0.0000000000   0.0000000000   0.0000000000
   0.8654739292   0.0025000000   0.0000000000   0.0000000000   0.0000000000   0.0000000000   0.0000000000   0.0000000000   0.0000000000   0.0000000000   0.0000000000   0.0000000000   0.0000000000
   0.8896129589   0.0025000000   0.0000000000   0.0000000000   0.0000000000   0.0000000000   0.0000000000   0.0000000000   0.0000000000   0.0000000000   0.0000000000   0.0000000000   0.0000000000
   0.9105557774   0.0025000000   0.0000000000   0.0000000000   0.0000000000   0.0000000000   0.0000000000   0.0000000000   0.0000000000   0.0000000000   0.0000000000   0.0000000000   0.0000000000
   0.9285861398   0.0025000000   0.0000000000   0.0000000000   0.0000000000   0.0000000000   0.0000000000   0.0000000000   0.0000000000   0.0000000000   0.0000000000   0.0000000000   0.0000000000
   0.9440063142   0.0025000000   0.0000000000   0.0000000000   0.0000000000   0.0000000000   0.0000000000   0.0000000000   0.0000000000   0.0000000000   0.0000000000   0.0000000000   0.0000000000
   0.9571193802   0.0025000000   0.0000000000   0.0000000000   0.0000000000   0.0000000000   0.0000000000   0.0000000000   0.0000000000   0.0000000000   0.0000000000   0.0000000000   0.0000000000
   0.9682166634   0.0025000000   0.0000000000   0.0000000000   0.0000000000   0.0000000000   0.0000000000   0.0000000000   0.0000000000   0.0000000000   0.0000000000   0.0000000000   0.0000000000
   0.9775696027   0.0025000000   0.0000000000   0.0000000000   0.0000000000   0.0000000000   0.0000000000   0.0000000000   0.0000000000   0.0000000000   0.0000000000   0.0000000000   0.0000000000
   0.9854251662   0.0025000000   0.0000000000   0.0000000000   0.0000000000   0.0000000000   0.0000000000   0.0000000000   0.0000000000   0.0000000000   0.0000000000   0.0000000000   0.0000000000
   0.9920039252   0.0025000000   0.0000000000   0.0000000000   0.0000000000   0.0000000000   0.0000000000   0.0000000000   0.0000000000   0.0000000000   0.0000000000   0.0000000000   0.0000000000
   0.9975000000   0.0025000000   0.0000000000   0.0000000000   0.0000000000   0.0000000000   0.0000000000   0.0000000000   0.0000000000   0.0000000000   0.0000000000   0.0000000000   0.0000000000
   0.0025000000   0.0079960748   0.0000000000   0.0000000000   0.0000000000   0.0000000000   0.0000000000   0.0000000000   0.0000000000   0.0000000000   0.0000000000   0.0000000000   0.0000000000
   0.0079960748   0.0079960748   0.0000000000   0.0000000000   0.0000000000   0.0000000000   0.0000000000   0.0000000000   0.0000000000   0.0000000000   0.0000000000   0.0000000000   0.0000000000
   0.0145748338   0.0079960748   0.0000000000   0.0000000000   0.0000000000   0.0000000000   0.0000000000   0.0000000000   0.0000000000   0.0000000000   0.0000000000   0.0000000000   0.0000000000
   0.0224303973   0.0079960748   0.0000000000   0.0000000000   0.0000000000   0.0000000000   0.0000000000   0.0000000000   0.0000000000   0.0000000000   0.0000000000   0.0000000000   0.0000000000
   0.0317833366   0.0079960748   0.0000000000   0.0000000000   0.0000000000   0.0000000000   0.0000000000   0.0000000000   0.0000000000   0.0000000000   0.0000000000   0.0000000000   0.0000000000
   0.0428806198   0.0079960748   0.0000000000   0.0000000000   0.0000000000   0.0000000000   0.0000000000   0.0000000000   0.0000000000   0.0000000000   0.0000000000   0.0000000000   0.0000000000
   0.0559936858   0.0079960748   0.0000000000   0.0000000000   0.0000000000   0.0000000000   0.0000000000   0.0000000000   0.0000000000   0.0000000000   0.0000000000   0.0000000000   0.0000000000
   0.0714138602   0.0079960748   0.0000000000   0.0000000000   0.0000000000   0.0000000000   0.0000000000   0.0000000000   0.0000000000   0.0000000000   0.0000000000   0.0000000000   0.0000000000
   0.0894442226   0.0079960748   0.0000000000   0.0000000000   0.0000000000   0.0000000000   0.0000000000   0.0000000000   0.0000000000   0.0000000000   0.0000000000   0.0000000000   0.0000000000
   0.1103870411   0.0079960748   0.0000000000   0.0000000000   0.0000000000   0.0000000000   0.0000000000   0.0000000000   0.0000000000   0.0000000000   0.0000000000   0.0000000000   0.0000000000
   0.1345260708   0.0079960748   0.0000000000   0.0000000000   0.0000000000   0.0000000000   0.0000000000   0.0000000000   0.0000000000   0.0000000000   0.0000000000   0.0000000000   0.0000000000
   0.1621034798   0.0079960748   0.0000000000   0.0000000000   0.0000000000   0.0000000000   0.0000000000   0.0000000000   0.0000000000   0.0000000000   0.0000000000   0.0000000000   0.0000000000
   0.1932919750   0.0079960748   0.0000000000   0.0000000000   0.0000000000   0.0000000000   0.0000000000   0.0000000000   0.0000000000   0.0000000000   0.0000000000   0.0000000000   0.0000000000
   0.2281638789   0.0079960748   0.0000000000   0.0000000000   0.0000000000   0.0000000000   0.0000000000   0.0000000000   0.0000000000   0.0000000000   0.0000000000   0.0000000000   0.0000000000
   0.2666603307   0.0079960748   0.0000000000   0.0000000000   0.0000000000   0.0000000000   0.0000000000   0.0000000000   0.0000000000   0.0000000000   0.0000000000   0.0000000000   0.0000000000
   0.3085651711   0.0079960748   0.0000000000   0.0000000000   0.0000000000   0.0000000000   0.0000000000   0.0000000000   0.0000000000   0.0000000000   0.0000000000   0.0000000000   0.0000000000
   0.3534889397   0.0079960748   0.0000000000   0.0000000000   0.0000000000   0.0000000000   0.0000000000   0.0000000000   0.0000000000   0.0000000000   0.0000000000   0.0000000000   0.0000000000
   0.4008682421   0.0079960748   0.0000000000   0.0000000000   0.0000000000   0.0000000000   0.0000000000   0.0000000000   0.0000000000   0.0000000000   0.0000000000   0.0000000000   0.0000000000
   0.4499841204   0.0079960748   0.0000000000   0.0000000000   0.0000000000   0.0000000000   0.0000000000   0.0000000000   0.0000000000   0.0000000000   0.0000000000   0.0000000000   0.0000000000
   0.5000000000   0.0079960748   0.0000000000   0.0000000000   0.0000000000   0.0000000000   0.0000000000   0.0000000000   0.0000000000   0.0000000000   0.0000000000   0.0000000000   0.0000000000
   0.5500158796   0.0079960748   0.0000000000   0.0000000000   0.0000000000   0.0000000000   0.0000000000   0.0000000000   0.0000000000   0.0000000000   0.0000000000   0.0000000000   0.0000000000
   0.5991317579   0.0079960748   0.0000000000   0.0000000000   0.0000000000   0.0000000000   0.0000000000   0.0000000000   0.0000000000   0.0000000000   0.0000000000   0.0000000000   0.0000000000
   0.6465110603   0.0079960748   0.0000000000   0.0000000000   0.0000000000   0.0000000000   0.0000000000   0.0000000000   0.0000000000   0.0000000000   0.0000000000   0.0000000000   0.0000000000
   0.6914348289   0.0079960748   0.0000000000   0.0000000000   0.0000000000   0.0000000000   0.0000000000   0.0000000000   0.0000000000   0.0000000000   0.0000000000   0.0000000000   0.0000000000
   0.7333396693   0.0079960748   0.0000000000   0.0000000000   0.0000000000   0.0000000000   0.0000000000   0.0000000000   0.0000000000   0.0000000000   0.0000000000   0.0000000000   0.0000000000
   0.7718361211   0.0079960748   0.0000000000   0.0000000000   0.0000000000   0.0000000000   0.0000000000   0.0000000000   0.0000000000   0.0000000000   0.0000000000   0.0000000000   0.0000000000
   0.8067080250   0.0079960748   0.0000000000   0.0000000000   0.0000000000   0.0000000000   0.0000000000   0.0000000000   0.0000000000   0.0000000000   0.0000000000   0.0000000000   0.0000000000
   0.8378965202   0.0079960748   0.0000000000   0.0000000000   0.0000000000   0.0000000000   0.0000000000   0.0000000000   0.0000000000   0.0000000000   0.0000000000   0.0000000000   0.0000000000
   0.8654739292   0.0079960748   0.0000000000   0.0000000000   0.0000000000   0.0000000000   0.0000000000   0.0000000000   0.0000000000   0.0000000000   0.0000000000   0.0000000000   0.0000000000
   0.8896129589   0.0079960748   0.0000000000   0.0000000000   0.0000000000   0.0000000000   0.0000000000   0.0000000000   0.0000000000   0.0000000000   0.0000000000   0.0000000000   0.0000000000
   0.9105557774   0.0079960748   0.0000000000   0.0000000000   0.0000000000   0.0000000000   0.0000000000   0.0000000000   0.0000000000   0.0000000000   0.0000000000   0.0000000000   0.0000000000
   0.9285861398   0.0079960748   0.0000000000   0.0000000000   0.0000000000   0.0000000000   0.0000000000   0.0000000000   0.0000000000   0.0000000000   0.0000000000   0.0000000000   0.0000000000
   0.9440063142   0.0079960748   0.0000000000   0.0000000000   0.0000000000   0.0000000000   0.0000000000   0.0000000000   0.0000000000   0.0000000000   0.0000000000   0.0000000000   0.0000000000
   0.9571193802   0.0079960748   0.0000000000   0.0000000000   0.0000000000   0.0000000000   0.0000000000   0.0000000000   0.0000000000   0.0000000000   0.0000000000   0.0000000000   0.0000000000
   0.9682166634   0.0079960748   0.0000000000   0.0000000000   0.0000000000   0.0000000000   0.0000000000   0.0000000000   0.0000000000   0.0000000000   0.0000000000   0.0000000000   0.0000000000
   0.9775696027   0.0079960748   0.0000000000   0.0000000000   0.0000000000   0.0000000000   0.0000000000   0.0000000000   0.0000000000   0.0000000000   0.0000000000   0.0000000000   0.0000000000
   0.9854251662   0.0079960748   0.0000000000   0.0000000000   0.0000000000   0.0000000000   0.0000000000   0.0000000000   0.0000000000   0.0000000000   0.0000000000   0.0000000000   0.0000000000
   0.9920039252   0.0079960748   0.0000000000   0.0000000000   0.0000000000   0.0000000000   0.0000000000   0.0000000000   0.0000000000   0.0000000000   0.0000000000   0.0000000000   0.0000000000
   0.9975000000   0.0079960748   0.0000000000   0.0000000000   0.0000000000   0.0000000000   0.0000000000   0.0000000000   0.0000000000   0.0000000000   0.0000000000   0.0000000000   0.0000000000
   0.0025000000   0.0145748338   0.0000000000   0.0000000000   0.0000000000   0.0000000000   0.0000000000   0.0000000000   0.0000000000   0.0000000000   0.0000000000   0.0000000000   0.0000000000
   0.0079960748   0.0145748338   0.0000000000   0.0000000000   0.0000000000   0.0000000000   0.0000000000   0.0000000000   0.0000000000   0.0000000000   0.0000000000   0.0000000000   0.0000000000
   0.0145748338   0.0145748338   1.0000455851  -0.0000045106  -0.0000045141   1.0000001993   1.0000457845   0.0000000000   0.0000000000   0.0000000000   0.0000000000   0.0000000000   0.0000000000
   0.0224303973   0.0145748338   1.0000874336  -0.0000063427  -0.0000085583   1.0000003245   1.0000877581   0.0000000000   0.0000000000   0.0000000000   0.0000000000   0.0000000000   0.0000000000
   0.0317833366   0.0145748338   1.0001145836  -0.0000068400  -0.0000116696   1.0000004211   1.0001150048   0.0000000000   0.0000000000   0.0000000000   0.0000000000   0.0000000000   0.0000000000
   0.0428806198   0.0145748338   1.0001349350  -0.0000066956  -0.0000140015   1.0000005007   1.0001354357   0.0000000000   0.0000000000   0.0000000000   0.0000000000   0.0000000000   0.0000000000
   0.0559936858   0.0145748338   1.0001506562  -0.0000062955  -0.0000157426   1.0000005645   1.0001512208   0.0000000000   0.0000000000   0.0000000000   0.0000000000   0.0000000000   0.0000000000
   0.0714138602   0.0145748338   1.0001634582  -0.0000058127  -0.0000170669   1.0000006178   1.0001640761   0.0000000000   0.0000000000   0.0000000000   0.0000000000   0.0000000000   0.0000000000
   0.0894442226   0.0145748338   1.0001738515  -0.0000053418  -0.0000180916   1.0000006627   1.0001745144   0.0000000000   0.0000000000   0.0000000000   0.0000000000   0.0000000000   0.0000000000
   0.1103870411   0.0145748338   1.0001821939  -0.0000049345  -0.0000188944   1.0000007008   1.0001828949   0.0000000000   0.0000000000   0.0000000000   0.0000000000   0.0000000000   0.0000000000
   0.1345260708   0.0145748338   1.0001888992  -0.0000046243  -0.0000195312   1.0000007338   1.0001896331   0.0000000000   0.0000000000   0.0000000000   0.0000000000   0.0000000000   0.0000000000
   0.1621034798   0.0145748338   1.0001944140  -0.0000044317  -0.0000200522   1.0000007629   1.0001951771   0.0000000000   0.0000000000   0.0000000000   0.0000000000   0.0000000000   0.0000000000
   0.1932919750   0.0145748338   1.0001991928  -0.0000043653  -0.0000205069   1.0000007883   1.0001999813   0.0000000000   0.0000000000   0.0000000000   0.0000000000   0.0000000000   0.0000000000
   0.2281638789   0.0145748338   1.0002037827  -0.0000043951  -0.0000209555   1.0000008132   1.0002045961   0.0000000000   0.0000000000   0.0000000000   0.0000000000   0.0000000000   0.0000000000
   0.2666603307   0.0145748338   1.0002085623  -0.0000044956  -0.0000214314   1.0000008392   1.0002094017   0.0000000000   0.0000000000   0.0000000000   0.0000000000   0.0000000000   0.0000000000
   0.3085651711   0.0145748338   1.0002137791  -0.0000046340  -0.0000219630   1.0000008665   1.0002146458   0.0000000000   0.0000000000   0.0000000000   0.0000000000   0.0000000000   0.0000000000
   0.3534889397   0.0145748338   1.0002197016  -0.0000047604  -0.0000225826   1.0000008959   1.0002205977   0.0000000000   0.0000000000   0.0000000000   0.0000000000   0.0000000000   0.0000000000
   0.4008682421   0.0145748338   1.0002267385  -0.0000048093  -0.0000233357   1.0000009309   1.0002276696   0.0000000000   0.0000000000   0.0000000000   0.0000000000   0.0000000000   0.0000000000
   0.4499841204   0.0145748338   1.0002342157  -0.0000046375  -0.0000241327   1.0000009613   1.0002351773   0.0000000000   0.0000000000   0.0000000000   0.0000000000   0.0000000000   0.0000000000
   0.5000000000   0.0145748338   1.0002412725  -0.0000042232  -0.0000248903   1.0000009886   1.0002422613   0.0000000000   0.0000000000   0.0000000000   0.0000000000   0.0000000000   0.0000000000
   0.5500158796   0.0145748338   1.0002472480  -0.0000035780  -0.0000255417   1.0000010119   1.0002482602   0.0000000000   0.0000000000   0.0000000000   0.0000000000   0.0000000000   0.0000000000
   0.5991317579   0.0145748338   1.0002515617  -0.0000027381  -0.0000260240   1.0000010287   1.0002525906   0.0000000000   0.0000000000   0.0000000000   0.0000000000   0.0000000000   0.0000000000
   0.6465110603   0.0145748338   1.0002538771  -0.0000017784  -0.0000263005   1.0000010364   1.0002549137   0.0000000000   0.0000000000   0.0000000000   0.0000000000   0.0000000000   0.0000000000
   0.6914348289   0.0145748338   1.0002544270  -0.0000007873  -0.0000263816   1.0000010322   1.0002554595   0.0000000000   0.0000000000   0.0000000000   0.0000000000   0.0000000000   0.0000000000
   0.7333396693   0.0145748338   1.0002531827   0.0000002802  -0.0000262602   1.0000010133   1.0002541962   0.0000000000   0.0000000000   0.0000000000   0.0000000000   0.0000000000   0.0000000000
   0.7718361211   0.0145748338   1.0002500414   0.0000013648  -0.0000259405   1.0000009873   1.0002510290   0.0000000000   0.0000000000   0.0000000000   0.0000000000   0.0000000000   0.0000000000
   0.8067080250   0.0145748338   1.0002449197   0.0000024148  -0.0000254205   1.0000009553   1.0002458752   0.0000000000   0.0000000000   0.0000000000   0.0000000000   0.0000000000   0.0000000000
   0.8378965202   0.0145748338   1.0002379436   0.0000034000  -0.0000247156   1.0000009183   1.0002388621   0.0000000000   0.0000000000   0.0000000000   0.0000000000   0.0000000000   0.0000000000
   0.8654739292   0.0145748338   1.0002292614   0.0000043103  -0.0000238412   1.0000008770   1.0002301386   0.0000000000   0.0000000000   0.0000000000   0.0000000000   0.0000000000   0.0000000000
   0.8896129589   0.0145748338   1.0002189341   0.0000051493  -0.0000228040   1.0000008313   1.0002197655   0.0000000000   0.0000000000   0.0000000000   0.0000000000   0.0000000000   0.0000000000
   0.9105557774   0.0145748338   1.0002068782   0.0000059264  -0.0000215917   1.0000007803   1.0002076587   0.0000000000   0.0000000000   0.0000000000   0.0000000000   0.0000000000   0.0000000000
   0.9285861398   0.0145748338   1.0001928466   0.0000066456  -0.0000201640   1.0000007228   1.0001935695   0.0000000000   0.0000000000   0.0000000000   0.0000000000   0.0000000000   0.0000000000
   0.9440063142   0.0145748338   1.0001764587   0.0000072865  -0.0000184450   1.0000006568   1.0001771156   0.0000000000   0.0000000000   0.0000000000   0.0000000000   0.0000000000   0.0000000000
   0.9571193802   0.0145748338   1.0001571949   0.0000077741  -0.0000162997   1.0000005803   1.0001577752   0.0000000000   0.0000000000   0.0000000000   0.0000000000   0.0000000000   0.0000000000
   0.9682166634   0.0145748338   1.0001329440   0.0000079370  -0.0000135219   1.0000004869   1.0001334310   0.0000000000   0.0000000000   0.0000000000   0.0000000000   0.0000000000   0.0000000000
   0.9775696027   0.0145748338   1.0001011704   0.0000073461  -0.0000098889   1.0000003751   1.0001015455   0.0000000000   0.0000000000   0.0000000000   0.0000000000   0.0000000000   0.0000000000
   0.9854251662   0.0145748338   1.0000526570   0.0000052158  -0.0000052088   1.0000002308   1.0000528878   0.0000000000   0.0000000000   0.0000000000   0.0000000000   0.0000000000   0.0000000000
   0.9920039252   0.0145748338   0.0000000000   0.0000000000   0.0000000000   0.0000000000   0.0000000000   0.0000000000   0.0000000000   0.0000000000   0.0000000000   0.0000000000   0.0000000000
   0.9975000000   0.0145748338   0.0000000000   0.0000000000   0.0000000000   0.0000000000   0.0000000000   0.0000000000   0.0000000000   0.0000000000   0.0000000000   0.0000000000   0.0000000000
   0.0025000000   0.0224303973   0.0000000000   0.0000000000   0.0000000000   0.0000000000   0.0000000000   0.0000000000   0.0000000000   0.0000000000   0.0000000000   0.0000000000   0.0000000000
   0.0079960748   0.0224303973   0.0000000000   0.0000000000   0.0000000000   0.0000000000   0.0000000000   0.0000000000   0.0000000000   0.0000000000   0.0000000000   0.0000000000   0.0000000000
   0.0145748338   0.0224303973   1.0000875784  -0.0000085630  -0.0000063559   1.0000003247   1.0000879031   0.0000000000   0.0000000000   0.0000000000   0.0000000000   0.0000000000   0.0000000000
   0.0224303973   0.0224303973   1.0001632874  -0.0000123010  -0.0000123085   1.0000004977   1.0001637852   0.0000000000   0.0000000000   0.0000000000   0.0000000000   0.0000000000   0.0000000000
   0.0317833366   0.0224303973   1.0002072358  -0.0000135869  -0.0000170885   1.0000006219   1.0002078579   0.0000000000   0.0000000000   0.0000000000   0.0000000000   0.0000000000   0.0000000000
   0.0428806198   0.0224303973   1.0002388624  -0.0000136115  -0.0000206843   1.0000007283   1.0002395908   0.0000000000   0.0000000000   0.0000000000   0.0000000000   0.0000000000   0.0000000000
   0.0559936858   0.0224303973   1.0002633600  -0.0000130527  -0.0000233400   1.0000008164   1.0002641766   0.0000000000   0.0000000000   0.0000000000   0.0000000000   0.0000000000   0.0000000000
   0.0714138602   0.0224303973   1.0002838288  -0.0000122442  -0.0000252853   1.0000008940   1.0002847231   0.0000000000   0.0000000000   0.0000000000   0.0000000000   0.0000000000   0.0000000000
   0.0894442226   0.0224303973   1.0003010367  -0.0000113884  -0.0000267337   1.0000009624   1.0003019994   0.0000000000   0.0000000000   0.0000000000   0.0000000000   0.0000000000   0.0000000000
   0.1103870411   0.0224303973   1.0003152860  -0.0000106159  -0.0000278366   1.0000010229   1.0003163092   0.0000000000   0.0000000000   0.0000000000   0.0000000000   0.0000000000   0.0000000000
   0.1345260708   0.0224303973   1.0003269633  -0.0000100156  -0.0000286963   1.0000010769   1.0003280405   0.0000000000   0.0000000000   0.0000000000   0.0000000000   0.0000000000   0.0000000000
   0.1621034798   0.0224303973   1.0003366691  -0.0000096437  -0.0000293945   1.0000011260   1.0003377954   0.0000000000   0.0000000000   0.0000000000   0.0000000000   0.0000000000   0.0000000000
   0.1932919750   0.0224303973   1.0003450726  -0.0000095266  -0.0000300105   1.0000011689   1.0003462419   0.0000000000   0.0000000000   0.0000000000   0.0000000000   0.0000000000   0.0000000000
   0.2281638789   0.0224303973   1.0003531842  -0.0000096069  -0.0000306331   1.0000012111   1.0003543958   0.0000000000   0.0000000000   0.0000000000   0.0000000000   0.0000000000   0.0000000000
   0.2666603307   0.0224303973   1.0003615579  -0.0000098340  -0.0000313075   1.0000012549   1.0003628133   0.0000000000   0.0000000000   0.0000000000   0.0000000000   0.0000000000   0.0000000000
   0.3085651711   0.0224303973   1.0003705945  -0.0000101373  -0.0000320791   1.0000013002   1.0003718952   0.0000000000   0.0000000000   0.0000000000   0.0000000000   0.0000000000   0.0000000000
   0.3534889397   0.0224303973   1.0003807364  -0.0000104079  -0.0000329994   1.0000013478   1.0003820847   0.0000000000   0.0000000000   0.0000000000   0.0000000000   0.0000000000   0.0000000000
   0.4008682421   0.0224303973   1.0003927543  -0.0000105075  -0.0000341404   1.0000014041   1.0003941590   0.0000000000   0.0000000000   0.0000000000   0.0000000000   0.0000000000   0.0000000000
   0.4499841204   0.0224303973   1.0004054397  -0.0000101298  -0.0000353513   1.0000014491   1.0004068894   0.0000000000   0.0000000000   0.0000000000   0.0000000000   0.0000000000   0.0000000000
   0.5000000000   0.0224303973   1.0004173444  -0.0000092281  -0.0000365096   1.0000014884   1.0004188334   0.0000000000   0.0000000000   0.0000000000   0.0000000000   0.0000000000   0.0000000000
   0.5500158796   0.0224303973   1.0004273791  -0.0000078240  -0.0000375162   1.0000015219   1.0004289017   0.0000000000   0.0000000000   0.0000000000   0.0000000000   0.0000000000   0.0000000000
   0.5991317579   0.0224303973   1.0004345527  -0.0000059971  -0.0000382748   1.0000015455   1.0004360989   0.0000000000   0.0000000000   0.0000000000   0.0000000000   0.0000000000   0.0000000000
   0.6465110603   0.0224303973   1.0004383106  -0.0000039092  -0.0000387278   1.0000015548   1.0004398661   0.0000000000   0.0000000000   0.0000000000   0.0000000000   0.0000000000   0.0000000000
   0.6914348289   0.0224303973   1.0004391199  -0.0000017494  -0.0000388802   1.0000015433   1.0004406639   0.0000000000   0.0000000000   0.0000000000   0.0000000000   0.0000000000   0.0000000000
   0.7333396693   0.0224303973   1.0004368625   0.0000005705  -0.0000387211   1.0000015054   1.0004383686   0.0000000000   0.0000000000   0.0000000000   0.0000000000   0.0000000000   0.0000000000
   0.7718361211   0.0224303973   1.0004313861   0.0000029185  -0.0000382661   1.0000014577   1.0004328444   0.0000000000   0.0000000000   0.0000000000   0.0000000000   0.0000000000   0.0000000000
   0.8067080250   0.0224303973   1.0004225244   0.0000051799  -0.0000375185   1.0000014019   1.0004239269   0.0000000000   0.0000000000   0.0000000000   0.0000000000   0.0000000000   0.0000000000
   0.8378965202   0.0224303973   1.0004104829   0.0000072876  -0.0000365044   1.0000013402   1.0004118237   0.0000000000   0.0000000000   0.0000000000   0.0000000000   0.0000000000   0.0000000000
   0.8654739292   0.0224303973   1.0003955407   0.0000092141  -0.0000352475   1.0000012739   1.0003968151   0.0000000000   0.0000000000   0.0000000000   0.0000000000   0.0000000000   0.0000000000
   0.8896129589   0.0224303973   1.0003778800   0.0000109585  -0.0000337572   1.0000012025   1.0003790830   0.0000000000   0.0000000000   0.0000000000   0.0000000000   0.0000000000   0.0000000000
   0.9105557774   0.0224303973   1.0003575245   0.0000125268  -0.0000320100   1.0000011249   1.0003586499   0.0000000000   0.0000000000   0.0000000000   0.0000000000   0.0000000000   0.0000000000
   0.9285861398   0.0224303973   1.0003343332   0.0000139077  -0.0000299285   1.0000010396   1.0003353731   0.0000000000   0.0000000000   0.0000000000   0.0000000000   0.0000000000   0.0000000000
   0.9440063142   0.0224303973   1.0003080829   0.0000150374  -0.0000273657   1.0000009453   1.0003090284   0.0000000000   0.0000000000   0.0000000000   0.0000000000   0.0000000000   0.0000000000
   0.9571193802   0.0224303973   1.0002779588   0.0000157562  -0.0000240693   1.0000008407   1.0002787998   0.0000000000   0.0000000000   0.0000000000   0.0000000000   0.0000000000   0.0000000000
   0.9682166634   0.0224303973   1.0002401011   0.0000157348  -0.0000197783   1.0000007168   1.0002408180   0.0000000000   0.0000000000   0.0000000000   0.0000000000   0.0000000000   0.0000000000