 variables=x,y,d,u,v,T,p,Amut
  zone i=           40  j=           40
        0.0000000000        0.0000000000        0.0000014934       -2.0970071605       -2.0967720126      275.9199052669        0.0856515775        0.0000000000
        0.0050000000        0.0000000000        0.0000014754        2.3228120053        2.2263396089      270.1656298266        0.0828544142        0.0000000000
        0.0109921495        0.0000000000        0.0000014915        4.3444099682       -4.4684576093      275.3991902673        0.0853780682        0.0000000000
        0.0181575181        0.0000000000        0.0000015165        3.5978774602      -13.4282220980      283.2445165054        0.0892822239        0.0000000000
        0.0267032765        0.0000000000        0.0000015177        2.8318606065      -14.3033064453      283.8242011860        0.0895404828        0.0000000000
        0.0368633968        0.0000000000        0.0000015207        2.4575159635      -15.3453887751      284.7779664880        0.0900196066        0.0000000000
        0.0488978428        0.0000000000        0.0000015241        2.2342494486      -16.3611274292      285.8315974500        0.0905547944        0.0000000000
        0.0630895288        0.0000000000        0.0000015275        2.0714063246      -17.2961521867      286.8720405009        0.0910842322        0.0000000000
        0.0797381915        0.0000000000        0.0000015306        1.9308125944      -18.1317405801      287.8437557615        0.0915794343        0.0000000000
        0.0991502537        0.0000000000        0.0000015334        1.7991983945      -18.8627481224      288.7212844807        0.0920270907        0.0000000000
        0.1216238285        0.0000000000        0.0000015359        1.6737528428      -19.4936475059      289.4968609243        0.0924230889        0.0000000000
        0.1474283131        0.0000000000        0.0000015380        1.5553997142      -20.0325392033      290.1711313668        0.0927677413        0.0000000000
        0.1767786464        0.0000000000        0.0000015399        1.4460836118      -20.4877302383      290.7483332866        0.0930631373        0.0000000000
        0.2098053036        0.0000000000        0.0000015414        1.3478780286      -20.8670347822      291.2343710216        0.0933121704        0.0000000000
        0.2465224541        0.0000000000        0.0000015427        1.2623603577      -21.1778113152      291.6358631382        0.0935181164        0.0000000000
        0.2867982073        0.0000000000        0.0000015437        1.1904966025      -21.4266509118      291.9593392238        0.0936842233        0.0000000000
        0.3303321350        0.0000000000        0.0000015445        1.1327540911      -21.6191932928      292.2107481207        0.0938134612        0.0000000000
        0.3766457444        0.0000000000        0.0000015451        1.0892698353      -21.7600467039      292.3951601268        0.0939083701        0.0000000000
        0.4250907398        0.0000000000        0.0000015455        1.0599908681      -21.8526621709      292.5165235629        0.0939709241        0.0000000000
        0.4748775010        0.0000000000        0.0000015457        1.0448163405      -21.8992332889      292.5774743914        0.0940024280        0.0000000000
        0.5251224990        0.0000000000        0.0000015457        1.0436417492      -21.9009004753      292.5794152833        0.0940035768        0.0000000000
        0.5749092602        0.0000000000        0.0000015455        1.0563465306      -21.8576658167      292.5224591244        0.0939744157        0.0000000000
        0.6233542556        0.0000000000        0.0000015452        1.0828509302      -21.7681830279      292.4052825036        0.0939142476        0.0000000000
        0.6696678650        0.0000000000        0.0000015446        1.1230750574      -21.6299720875      292.2252857556        0.0938217390        0.0000000000
        0.7132017927        0.0000000000        0.0000015438        1.1768182932      -21.4394824099      291.9787208817        0.0936949895        0.0000000000
        0.7534775459        0.0000000000        0.0000015428        1.2436206165      -21.1920333703      291.6607646772        0.0935315604        0.0000000000
        0.7901946964        0.0000000000        0.0000015415        1.3225903230      -20.8819108588      291.2657209279        0.0933285880        0.0000000000
        0.8232213536        0.0000000000        0.0000015400        1.4121900861      -20.5025856318      290.7873513322        0.0930829699        0.0000000000
        0.8525716869        0.0000000000        0.0000015382        1.5100105042      -20.0469989365      290.2192812234        0.0927915890        0.0000000000
        0.8783761715        0.0000000000        0.0000015361        1.6125481626      -19.5078437928      289.5554348091        0.0924515426        0.0000000000
        0.9008497463        0.0000000000        0.0000015336        1.7150230662      -18.8780878403      288.7906435609        0.0920604695        0.0000000000
        0.9202618085        0.0000000000        0.0000015308        1.8113423781      -18.1518054174      287.9214915418        0.0916169988        0.0000000000
        0.9369104712        0.0000000000        0.0000015277        1.8943739098      -17.3246405915      286.9466856395        0.0911209313        0.0000000000
        0.9511021572        0.0000000000        0.0000015243        1.9562497308      -16.3947623106      285.8678165136        0.0905735957        0.0000000000
        0.9631366032        0.0000000000        0.0000015205        1.9910479782      -15.3627714292      284.6858693855        0.0899766573        0.0000000000
        0.9732967235        0.0000000000        0.0000015164        1.9795832780      -14.2315941109      283.4381625845        0.0893423391        0.0000000000
        0.9818424819        0.0000000000        0.0000015203       -0.0102625824      -14.8661039631      284.5086345460        0.0899108634        0.0000000000
        0.9890078505        0.0000000000        0.0000015015       -2.1909324780       -7.7020282003      278.6436431146        0.0869687425        0.0000000000
        0.9950000000        0.0000000000        0.0000014783       -1.9624744329        0.7917041001      271.0969457775        0.0833019034        0.0000000000
        1.0000000000        0.0000000000        0.0000014814       -1.0370040126        0.4575950241      272.0532472683        0.0837709433        0.0000000000
        0.0000000000        0.0050000000        0.0000014754        2.2255175733        2.3233298853      270.1739797800        0.0828566756        0.0000000000
        0.0050000000        0.0050000000        0.0000014945       -2.3951101382       -2.3966676108      276.2012277927        0.0858015586        0.0000000000
        0.0109921495        0.0050000000        0.0000015480       -4.4151653837      -17.6252123684      291.9194478165        0.0939324514        0.0000000000
        0.0181575181        0.0050000000        0.0000016014       -2.1571622325      -31.9612927564      306.3846101621        0.1019869279        0.0000000000
        0.0267032765        0.0050000000        0.0000016148        0.5316223964      -34.8710596917      310.4487844408        0.1042046853        0.0000000000
        0.0368633968        0.0050000000        0.0000016210        1.4276872041      -36.0938837672      312.4448186771        0.1052795273        0.0000000000
        0.0488978428        0.0050000000        0.0000016248        1.6652026327      -36.8095774299      313.6693602978        0.1059352017        0.0000000000
        0.0630895288        0.0050000000        0.0000016274        1.6456853812      -37.3185830811      314.5342714306        0.1063972586        0.0000000000
        0.0797381915        0.0050000000        0.0000016293        1.5327935085      -37.7139054372      315.1998471715        0.1067514892        0.0000000000
        0.0991502537        0.0050000000        0.0000016309        1.3940921516      -38.0291244908      315.7356748388        0.1070344537        0.0000000000
        0.1216238285        0.0050000000        0.0000016321        1.2563611109      -38.2849618016      316.1779132900        0.1072663327        0.0000000000
        0.1474283131        0.0050000000        0.0000016332        1.1305387293      -38.4964131542      316.5477579176        0.1074596526        0.0000000000
        0.1767786464        0.0050000000        0.0000016340        1.0209821232      -38.6723888888      316.8576426923        0.1076216121        0.0000000000
        0.2098053036        0.0050000000        0.0000016348        0.9284249187      -38.8180791674      317.1153242815        0.1077564382        0.0000000000
        0.2465224541        0.0050000000        0.0000016353        0.8521382779      -38.9373261363      317.3265175172        0.1078671774        0.0000000000
        0.2867982073        0.0050000000        0.0000016358        0.7909931039      -39.0331488934      317.4957818920        0.1079562264        0.0000000000
        0.3303321350        0.0050000000        0.0000016362        0.7438427628      -39.1078452381      317.6267693697        0.1080254628        0.0000000000
        0.3766457444        0.0050000000        0.0000016365        0.7097205029      -39.1631598389      317.7223540468        0.1080763468        0.0000000000
        0.4250907398        0.0050000000        0.0000016367        0.6879705777      -39.2002287164      317.7845896824        0.1081098817        0.0000000000
        0.4748775010        0.0050000000        0.0000016368        0.6780950257      -39.2194395606      317.8146758481        0.1081265534        0.0000000000
        0.5251224990        0.0050000000        0.0000016368        0.6797628514      -39.2210767899      317.8132520877        0.1081266492        0.0000000000
        0.5749092602        0.0050000000        0.0000016367        0.6932046244      -39.2050021510      317.7800945611        0.1081100354        0.0000000000
        0.6233542556        0.0050000000        0.0000016365        0.7189936888      -39.1700103945      317.7138537737        0.1080758514        0.0000000000
        0.6696678650        0.0050000000        0.0000016362        0.7578545907      -39.1143733749      317.6124352535        0.1080228277        0.0000000000
        0.7132017927        0.0050000000        0.0000016358        0.8108736279      -39.0359000477      317.4729880489        0.1079493064        0.0000000000
        0.7534775459        0.0050000000        0.0000016353        0.8794684590      -38.9316639413      317.2917793582        0.1078531156        0.0000000000
        0.7901946964        0.0050000000        0.0000016346        0.9653220284      -38.7979594824      317.0642589597        0.1077315872        0.0000000000
        0.8232213536        0.0050000000        0.0000016338        1.0702843796      -38.6304648247      316.7852625107        0.1075816976        0.0000000000
        0.8525716869        0.0050000000        0.0000016328        1.1962952543      -38.4244549230      316.4492789969        0.1074002499        0.0000000000
        0.8783761715        0.0050000000        0.0000016315        1.3452557331      -38.1750303785      316.0507677919        0.1071840775        0.0000000000
        0.9008497463        0.0050000000        0.0000016301        1.5188100347      -37.8776278955      315.5846750365        0.1069304138        0.0000000000
        0.9202618085        0.0050000000        0.0000016284        1.7180958686      -37.5289784741      315.0471779453        0.1066374808        0.0000000000
        0.9369104712        0.0050000000        0.0000016265        1.9434559461      -37.1282494681      314.4367225249        0.1063051942        0.0000000000
        0.9511021572        0.0050000000        0.0000016243        2.1943098457      -36.6795294581      313.7556946225        0.1059364768        0.0000000000
        0.9631366032        0.0050000000        0.0000016221        2.4681870412      -36.1972930989      313.0165793145        0.1055407632        0.0000000000
        0.9732967235        0.0050000000        0.0000016199        2.7708083547      -35.7125423680      312.2365004955        0.1051330285        0.0000000000
        0.9818424819        0.0050000000        0.0000016099        5.0441186515      -33.6823019074      309.5846536443        0.1035986979        0.0000000000
        0.9890078505        0.0050000000        0.0000015588        7.6542629727      -20.1045536600      295.9632762230        0.0958965992        0.0000000000
        0.9950000000        0.0050000000        0.0000015077        6.1464291727       -5.3816981409      280.7684111060        0.0879927462        0.0000000000
        1.0000000000        0.0050000000        0.0000014900        2.0586024244       -0.6957641330      275.0502740491        0.0851893573        0.0000000000
        0.0000000000        0.0109921495        0.0000014915       -4.4749904083        4.3517082256      275.4297527156        0.0853912201        0.0000000000
        0.0050000000        0.0109921495        0.0000015474      -17.5685537153       -4.4420941722      292.1174625034        0.0939601644        0.0000000000
        0.0109921495        0.0109921495        0.0000014379      -19.3538661394      -19.5469792599      318.7514845062        0.0952727120        0.0000000000
        0.0181575181        0.0109921495        0.0000012686       -9.1780748702      -35.2413025974      344.4336224493        0.0908280839        0.0000000000
        0.0267032765        0.0109921495        0.0000012338       -2.4131373457      -38.5100490397      349.4892621808        0.0896270128        0.0000000000
        0.0368633968        0.0109921495        0.0000012315       -0.0813206806      -39.4894433321      352.2090215420        0.0901602842        0.0000000000
        0.0488978428        0.0109921495        0.0000012334        0.7667893373      -39.9020911117      353.7704961584        0.0906981633        0.0000000000
        0.0630895288        0.0109921495        0.0000012353        1.0172516269      -40.1344289194      354.7218038213        0.0910825766        0.0000000000
        0.0797381915        0.0109921495        0.0000012366        1.0315389894      -40.2903286968      355.3376905735        0.0913370012        0.0000000000
        0.0991502537        0.0109921495        0.0000012374        0.9605415911      -40.3991529731      355.7601620005        0.0915011123        0.0000000000
        0.1216238285        0.0109921495        0.0000012378        0.8644942591      -40.4765176870      356.0680161667        0.0916113344        0.0000000000
        0.1474283131        0.0109921495        0.0000012380        0.7692441699      -40.5352490761      356.3039447950        0.0916896755        0.0000000000
        0.1767786464        0.0109921495        0.0000012381        0.6855077942      -40.5821312257      356.4896914017        0.0917465248        0.0000000000
        0.2098053036        0.0109921495        0.0000012382        0.6146911163      -40.6201877646      356.6378228149        0.0917894373        0.0000000000
        0.2465224541        0.0109921495        0.0000012383        0.5562324280      -40.6515678742      356.7566009233        0.0918245112        0.0000000000
        0.2867982073        0.0109921495        0.0000012383        0.5096817115      -40.6776899814      356.8507074162        0.0918542955        0.0000000000
        0.3303321350        0.0109921495        0.0000012384        0.4742560663      -40.6992260009      356.9226879612        0.0918791575        0.0000000000
        0.3766457444        0.0109921495        0.0000012385        0.4491582098      -40.7164636627      356.9741095060        0.0918988364        0.0000000000
        0.4250907398        0.0109921495        0.0000012386        0.4337001940      -40.7293587311      357.0059530291        0.0919130053        0.0000000000
        0.4748775010        0.0109921495        0.0000012387        0.4272070270      -40.7374423205      357.0190806263        0.0919219330        0.0000000000
        0.5251224990        0.0109921495        0.0000012387        0.4292925024      -40.7406091276      357.0140296278        0.0919259819        0.0000000000
        0.5749092602        0.0109921495        0.0000012388        0.4404431813      -40.7385932193      356.9903463438        0.0919247442        0.0000000000
        0.6233542556        0.0109921495        0.0000012389        0.4615183211      -40.7301198623      356.9468132025        0.0919173250        0.0000000000
        0.6696678650        0.0109921495        0.0000012389        0.4932511900      -40.7137049280      356.8819327647        0.0919028914        0.0000000000
        0.7132017927        0.0109921495        0.0000012389        0.5366900313      -40.6877044854      356.7937998833        0.0918806052        0.0000000000
        0.7534775459        0.0109921495        0.0000012389        0.5933301344      -40.6498882196      356.6799809086        0.0918494824        0.0000000000
        0.7901946964        0.0109921495        0.0000012388        0.6648831263      -40.5973504860      356.5376643214        0.0918085280        0.0000000000
        0.8232213536        0.0109921495        0.0000012387        0.7530633048      -40.5266558888      356.3638771714        0.0917568872        0.0000000000
        0.8525716869        0.0109921495        0.0000012386        0.8595381692      -40.4340789014      356.1557456407        0.0916940204        0.0000000000
        0.8783761715        0.0109921495        0.0000012384        0.9856667100      -40.3159543917      355.9107494563        0.0916198061        0.0000000000
        0.9008497463        0.0109921495        0.0000012383        1.1319940376      -40.1695454703      355.6270849534        0.0915347780        0.0000000000
        0.9202618085        0.0109921495        0.0000012381        1.2978766156      -39.9953149009      355.3017780949        0.0914363235        0.0000000000
        0.9369104712        0.0109921495        0.0000012377        1.4798162122      -39.8006023854      354.9296696526        0.0913152350        0.0000000000
        0.9511021572        0.0109921495        0.0000012369        1.6724608533      -39.6088775888      354.4963423662        0.0911418300        0.0000000000
        0.9631366032        0.0109921495        0.0000012340        1.8719168683      -39.4875175649      353.9202301128        0.0907831169        0.0000000000
        0.9732967235        0.0109921495        0.0000012319        3.6945148315      -39.6259194269      352.0768601691        0.0901545082        0.0000000000
        0.9818424819        0.0109921495        0.0000012653       11.1415170794      -36.8976809216      347.4415924368        0.0913797656        0.0000000000
        0.9890078505        0.0109921495        0.0000014413       21.8627449129      -21.5628817725      322.0489367901        0.0964800820        0.0000000000
        0.9950000000        0.0109921495        0.0000015605       20.8414894179       -8.0651701046      296.7473272141        0.0962555671        0.0000000000
        1.0000000000        0.0109921495        0.0000015136        9.6297428781       -1.4117145161      282.5978702273        0.0889134556        0.0000000000
        0.0000000000        0.0181575181        0.0000015165      -13.4251798243        3.6170932534      283.2961029053        0.0893038246        0.0000000000
        0.0050000000        0.0181575181        0.0000015998      -31.8251254636       -2.2108661004      306.8621443436        0.1020457730        0.0000000000
        0.0109921495        0.0181575181        0.0000012673      -34.8592407132       -9.5072833059      345.0175981884        0.0908872782        0.0000000000
        0.0181575181        0.0181575181        0.0000007949      -18.0044954162      -18.7862116622      401.8321161027        0.0663978766        0.0000000000
        0.0267032765        0.0181575181        0.0000006790       -6.4923506201      -19.8799551446      412.8227157373        0.0582654622        0.0000000000
        0.0368633968        0.0181575181        0.0000006589       -2.3723913241      -19.8783599260      417.5543609756        0.0571886438        0.0000000000
        0.0488978428        0.0181575181        0.0000006571       -0.6985265709      -19.8071227203      419.9787046359        0.0573627787        0.0000000000
        0.0630895288        0.0181575181        0.0000006586       -0.0429388777      -19.7951658963      421.3131429161        0.0576754084        0.0000000000
        0.0797381915        0.0181575181        0.0000006600        0.1982245015      -19.8269785165      422.0908628602        0.0579100602        0.0000000000
        0.0991502537        0.0181575181        0.0000006607        0.2741710551      -19.8744571128      422.5680341920        0.0580359811        0.0000000000
        0.1216238285        0.0181575181        0.0000006608        0.2811307348      -19.9206215068      422.8775090861        0.0580877321        0.0000000000
        0.1474283131        0.0181575181        0.0000006606        0.2645565256      -19.9629477478      423.0909493892        0.0580993733        0.0000000000
        0.1767786464        0.0181575181        0.0000006602        0.2447746946      -20.0003862868      423.2450037289        0.0580857527        0.0000000000
        0.2098053036        0.0181575181        0.0000006598        0.2227247923      -20.0326300331      423.3585124722        0.0580620508        0.0000000000
        0.2465224541        0.0181575181        0.0000006594        0.1993627497      -20.0614282085      423.4421966066        0.0580430032        0.0000000000
        0.2867982073        0.0181575181        0.0000006592        0.1783016483      -20.0880229271      423.5020200512        0.0580331021        0.0000000000
        0.3303321350        0.0181575181        0.0000006592        0.1613987203      -20.1123939696      423.5414412793        0.0580308924        0.0000000000
        0.3766457444        0.0181575181        0.0000006592        0.1494763866      -20.1340241150      423.5627260074        0.0580337055        0.0000000000
        0.4250907398        0.0181575181        0.0000006592        0.1422649333      -20.1522096306      423.5673393249        0.0580393885        0.0000000000
        0.4748775010        0.0181575181        0.0000006593        0.1388826448      -20.1662909146      423.5563982062        0.0580485367        0.0000000000
        0.5251224990        0.0181575181        0.0000006595        0.1390553943      -20.1761484852      423.5304841111        0.0580621673        0.0000000000
        0.5749092602        0.0181575181        0.0000006598        0.1436735415      -20.1812465012      423.4892950964        0.0580794827        0.0000000000
        0.6233542556        0.0181575181        0.0000006601        0.1538096504      -20.1797753651      423.4322614778        0.0580992734        0.0000000000
        0.6696678650        0.0181575181        0.0000006605        0.1694473484      -20.1699179662      423.3587910349        0.0581210016        0.0000000000
        0.7132017927        0.0181575181        0.0000006609        0.1901879418      -20.1499258706      423.2680245406        0.0581446602        0.0000000000
        0.7534775459        0.0181575181        0.0000006613        0.2157630582      -20.1174105571      423.1588819971        0.0581706059        0.0000000000
        0.7901946964        0.0181575181        0.0000006619        0.2452863613      -20.0693920597      423.0303112747        0.0581999234        0.0000000000
        0.8232213536        0.0181575181        0.0000006625        0.2766348242      -20.0024877919      422.8815626546        0.0582346618        0.0000000000
        0.8525716869        0.0181575181        0.0000006633        0.3062376918      -19.9134702774      422.7124231152        0.0582777695        0.0000000000
        0.8783761715        0.0181575181        0.0000006642        0.3285485552      -19.8003403748      422.5232798296        0.0583321415        0.0000000000
        0.9008497463        0.0181575181        0.0000006653        0.3350945127      -19.6645008498      422.3150076068        0.0583997190        0.0000000000
        0.9202618085        0.0181575181        0.0000006665        0.3136797630      -19.5159091061      422.0885669447        0.0584718209        0.0000000000
        0.9369104712        0.0181575181        0.0000006674        0.2426481140      -19.3819517700      421.8466636868        0.0585211475        0.0000000000
        0.9511021572        0.0181575181        0.0000006673        0.0907828289      -19.3245105371      421.5948896916        0.0584796515        0.0000000000
        0.9631366032        0.0181575181        0.0000006638       -0.2004888754      -19.4683856856      421.2937177706        0.0581295656        0.0000000000
        0.9732967235        0.0181575181        0.0000006655        4.5834680461      -20.3863578668      416.9785601101        0.0576801495        0.0000000000
        0.9818424819        0.0181575181        0.0000007717       19.0689420869      -19.9744934466      404.5776125815        0.0648941379        0.0000000000
        0.9890078505        0.0181575181        0.0000012596       36.4153123548      -11.7353517604      347.4488565613        0.0909683252        0.0000000000
        0.9950000000        0.0181575181        0.0000016115       34.1443993493       -5.5254226271      311.3651901612        0.1042966163        0.0000000000
        1.0000000000        0.0181575181        0.0000015423       17.9840823842       -0.5770610066      291.3844513200        0.0934132532        0.0000000000
        0.0000000000        0.0267032765        0.0000015178      -14.2848268119        2.8636382870      283.8856587943        0.0895625587        0.0000000000
        0.0050000000        0.0267032765        0.0000016127      -34.6858002500        0.4718337253      311.0624245205        0.1042726160        0.0000000000
        0.0109921495        0.0267032765        0.0000012320      -38.0874040533       -2.7645436520      350.4006832741        0.0897291502        0.0000000000
        0.0181575181        0.0267032765        0.0000006789      -19.0575455899       -7.3759213871      413.4090935763        0.0583374539        0.0000000000
        0.0267032765        0.0267032765        0.0000005270       -6.4059075963       -7.3358211005      426.7156102497        0.0467475078        0.0000000000
        0.0368633968        0.0267032765        0.0000004954       -2.1542234680       -6.7420009509      432.5808283631        0.0445467903        0.0000000000
        0.0488978428        0.0267032765        0.0000004909       -0.5609117801       -6.3553855989      435.6257926025        0.0444551180        0.0000000000
        0.0630895288        0.0267032765        0.0000004923       -0.0205342655       -6.1770767958      437.3297103545        0.0447513728        0.0000000000
        0.0797381915        0.0267032765        0.0000004942        0.1376410181       -6.1271152783      438.3381731953        0.0450325480        0.0000000000
        0.0991502537        0.0267032765        0.0000004952        0.1703442824       -6.1402705496      438.9611316099        0.0451843529        0.0000000000
        0.1216238285        0.0267032765        0.0000004952        0.1560875829       -6.1763937185      439.3626194637        0.0452245422        0.0000000000
        0.1474283131        0.0267032765        0.0000004947        0.1326387304       -6.2207417137      439.6333206015        0.0452052897        0.0000000000
        0.1767786464        0.0267032765        0.0000004939        0.1155099575       -6.2651501905      439.8216593809        0.0451494284        0.0000000000
        0.2098053036        0.0267032765        0.0000004930        0.0967383272       -6.3059373022      439.9532024738        0.0450812564        0.0000000000
        0.2465224541        0.0267032765        0.0000004923        0.0742595088       -6.3442641474      440.0428668010        0.0450256300        0.0000000000
        0.2867982073        0.0267032765        0.0000004918        0.0531871477       -6.3810753073      440.0996506151        0.0449898645        0.0000000000
        0.3303321350        0.0267032765        0.0000004916        0.0362513035       -6.4157728220      440.1292579151        0.0449711295        0.0000000000
        0.3766457444        0.0267032765        0.0000004915        0.0248348433       -6.4472532089      440.1356900977        0.0449647754        0.0000000000
        0.4250907398        0.0267032765        0.0000004915        0.0183963595       -6.4743113301      440.1216708568        0.0449670375        0.0000000000
        0.4748775010        0.0267032765        0.0000004917        0.0153525097       -6.4962378908      440.0889555370        0.0449786844        0.0000000000
        0.5251224990        0.0267032765        0.0000004920        0.0155071580       -6.5128942549      440.0383944273        0.0450014173        0.0000000000
        0.5749092602        0.0267032765        0.0000004924        0.0203889799       -6.5235475454      439.9697663882        0.0450340805        0.0000000000
        0.6233542556        0.0267032765        0.0000004930        0.0316316330       -6.5259738698      439.8826847879        0.0450746877        0.0000000000
        0.6696678650        0.0267032765        0.0000004936        0.0492281619       -6.5180766708      439.7768528569        0.0451223281        0.0000000000
        0.7132017927        0.0267032765        0.0000004943        0.0724459348       -6.4981330864      439.6515535325        0.0451769728        0.0000000000