 variables=x,y,d,u,v,T,p,Amut
  zone i=           40  j=           40
        0.0000000000       -0.5000000000        0.0000054919     1077.7496674294        0.0000000000      260.7710000000        0.4252607466        0.0000000000
       -0.0402331948       -0.4983786613        0.0000054919     1077.7496674294        0.0000000000      260.7710000000        0.4252607466        0.0000000000
       -0.0802054630       -0.4935251602        0.0000054919     1077.7496674294        0.0000000000      260.7710000000        0.4252607466        0.0000000000
       -0.1196575703       -0.4854709732        0.0000054919     1077.7496674294        0.0000000000      260.7710000000        0.4252607466        0.0000000000
       -0.1583336559       -0.4742683348        0.0000054919     1077.7496674294        0.0000000000      260.7710000000        0.4252607466        0.0000000000
       -0.1959828915       -0.4599898980        0.0000054919     1077.7496674294        0.0000000000      260.7710000000        0.4252607466        0.0000000000
       -0.2323611085       -0.4427282635        0.0000054919     1077.7496674294        0.0000000000      260.7710000000        0.4252607466        0.0000000000
       -0.2672323813       -0.4225953791        0.0000054919     1077.7496674294        0.0000000000      260.7710000000        0.4252607466        0.0000000000
       -0.3003705572       -0.3997218137        0.0000054919     1077.7496674294        0.0000000000      260.7710000000        0.4252607466        0.0000000000
       -0.3315607236       -0.3742559105        0.0000054919     1077.7496674294        0.0000000000      260.7710000000        0.4252607466        0.0000000000
       -0.3606006010       -0.3463628250        0.0000054919     1077.7496674294        0.0000000000      260.7710000000        0.4252607466        0.0000000000
       -0.3873018556       -0.3162234537        0.0000054919     1077.7496674294        0.0000000000      260.7710000000        0.4252607466        0.0000000000
       -0.4114913202       -0.2840332611        0.0000054919     1077.7496674294        0.0000000000      260.7710000000        0.4252607466        0.0000000000
       -0.4330121176       -0.2500010120        0.0000054919     1077.7496674294        0.0000000000      260.7710000000        0.4252607466        0.0000000000
       -0.4517246778       -0.2143474176        0.0000054919     1077.7496674294        0.0000000000      260.7710000000        0.4252607466        0.0000000000
       -0.4675076432       -0.1773037042        0.0000054919     1077.7496674294        0.0000000000      260.7710000000        0.4252607466        0.0000000000
       -0.4802586557       -0.1391101134        0.0000054919     1077.7496674294        0.0000000000      260.7710000000        0.4252607466        0.0000000000
       -0.4898950204       -0.1000143441        0.0000054919     1077.7496674294        0.0000000000      260.7710000000        0.4252607466        0.0000000000
       -0.4963542420       -0.0602699463        0.0000054919     1077.7496674294        0.0000000000      260.7710000000        0.4252607466        0.0000000000
       -0.4995944303       -0.0201346765        0.0000054919     1077.7496674294        0.0000000000      260.7710000000        0.4252607466        0.0000000000
       -0.4995908803        0.0201310879        0.0000054919     1077.7496674294        0.0000000000      260.7710000000        0.4252607466        0.0000000000
       -0.4963437894        0.0602658561        0.0000054919     1077.7496674294        0.0000000000      260.7710000000        0.4252607466        0.0000000000
       -0.4898909524        0.1000114004        0.0000054919     1077.7496674294        0.0000000000      260.7710000000        0.4252607466        0.0000000000
       -0.4802718909        0.1391114565        0.0000054919     1077.7496674294        0.0000000000      260.7710000000        0.4252607466        0.0000000000
       -0.4675275072        0.1773070598        0.0000054919     1077.7496674294        0.0000000000      260.7710000000        0.4252607466        0.0000000000
       -0.4517267611        0.2143430951        0.0000054919     1077.7496674294        0.0000000000      260.7710000000        0.4252607466        0.0000000000
       -0.4329988912        0.2499887597        0.0000054919     1077.7496674294        0.0000000000      260.7710000000        0.4252607466        0.0000000000
       -0.4114783430        0.2840213084        0.0000054919     1077.7496674294        0.0000000000      260.7710000000        0.4252607466        0.0000000000
       -0.3872969255        0.3162175276        0.0000054919     1077.7496674294        0.0000000000      260.7710000000        0.4252607466        0.0000000000
       -0.3605935448        0.3463548935        0.0000054919     1077.7496674294        0.0000000000      260.7710000000        0.4252607466        0.0000000000
       -0.3315505513        0.3742448262        0.0000054919     1077.7496674294        0.0000000000      260.7710000000        0.4252607466        0.0000000000
       -0.3003656766        0.3997173495        0.0000054919     1077.7496674294        0.0000000000      260.7710000000        0.4252607466        0.0000000000
       -0.2672364994        0.4226039153        0.0000054919     1077.7496674294        0.0000000000      260.7710000000        0.4252607466        0.0000000000
       -0.2323652682        0.4427364924        0.0000054919     1077.7496674294        0.0000000000      260.7710000000        0.4252607466        0.0000000000
       -0.1959808490        0.4599850828        0.0000054919     1077.7496674294        0.0000000000      260.7710000000        0.4252607466        0.0000000000
       -0.1583302766        0.4742603260        0.0000054919     1077.7496674294        0.0000000000      260.7710000000        0.4252607466        0.0000000000
       -0.1196574216        0.4854743533        0.0000054919     1077.7496674294        0.0000000000      260.7710000000        0.4252607466        0.0000000000
       -0.0802071500        0.4935368737        0.0000054919     1077.7496674294        0.0000000000      260.7710000000        0.4252607466        0.0000000000
       -0.0402336035        0.4983793222        0.0000054919     1077.7496674294        0.0000000000      260.7710000000        0.4252607466        0.0000000000
        0.0000000000        0.4999925600        0.0000054919     1077.7496674294        0.0000000000      260.7710000000        0.4252607466        0.0000000000
        0.0000000000       -0.5016743413        0.0000054919     1077.7496674294        0.0000000000      260.7710000000        0.4252607466        0.0000000000
       -0.0403635698       -0.5000295986        0.0000054919     1077.7496674294        0.0000000000      260.7710000000        0.4252607466        0.0000000000
       -0.0804662552       -0.4951536770        0.0000054919     1077.7496674294        0.0000000000      260.7710000000        0.4252607466        0.0000000000
       -0.1200476569       -0.4870719687        0.0000054919     1077.7496674294        0.0000000000      260.7710000000        0.4252607466        0.0000000000
       -0.1588504114       -0.4758314736        0.0000054919     1077.7496674294        0.0000000000      260.7710000000        0.4252607466        0.0000000000
       -0.1966229236       -0.4615052883        0.0000054919     1077.7496674294        0.0000000000      260.7710000000        0.4252607466        0.0000000000
       -0.2331201971       -0.4441861821        0.0000054919     1077.7496674294        0.0000000000      260.7710000000        0.4252607466        0.0000000000
       -0.2681055372       -0.4239864635        0.0000054919     1077.7496674294        0.0000000000      260.7710000000        0.4252607466        0.0000000000
       -0.3013520608       -0.4010371359        0.0000054919     1077.7496674294        0.0000000000      260.7710000000        0.4252607466        0.0000000000
       -0.3326441633       -0.3754870351        0.0000054919     1077.7496674294        0.0000000000      260.7710000000        0.4252607466        0.0000000000
       -0.3617789165       -0.3475018620        0.0000054919     1077.7496674294        0.0000000000      260.7710000000        0.4252607466        0.0000000000
       -0.3885673840       -0.3172631080        0.0000054919     1077.7496674294        0.0000000000      260.7710000000        0.4252607466        0.0000000000
       -0.4128358457       -0.2849668770        0.0000054919     1077.7496674294        0.0000000000      260.7710000000        0.4252607466        0.0000000000
       -0.4344269239       -0.2508226140        0.0000054919     1077.7496674294        0.0000000000      260.7710000000        0.4252607466        0.0000000000
       -0.4532006031       -0.2150517465        0.0000054919     1077.7496674294        0.0000000000      260.7710000000        0.4252607466        0.0000000000
       -0.4690351378       -0.1778862490        0.0000054919     1077.7496674294        0.0000000000      260.7710000000        0.4252607466        0.0000000000
       -0.4818278418       -0.1395671393        0.0000054919     1077.7496674294        0.0000000000      260.7710000000        0.4252607466        0.0000000000
       -0.4914957547       -0.1003429157        0.0000054919     1077.7496674294        0.0000000000      260.7710000000        0.4252607466        0.0000000000
       -0.4979761791       -0.0604679458        0.0000054919     1077.7496674294        0.0000000000      260.7710000000        0.4252607466        0.0000000000
       -0.5012270882       -0.0202008172        0.0000054919     1077.7496674294        0.0000000000      260.7710000000        0.4252607466        0.0000000000
       -0.5012235403        0.0201972469        0.0000054919     1077.7496674294        0.0000000000      260.7710000000        0.4252607466        0.0000000000
       -0.4979657323        0.0604638741        0.0000054919     1077.7496674294        0.0000000000      260.7710000000        0.4252607466        0.0000000000
       -0.4914916903        0.1003399901        0.0000054919     1077.7496674294        0.0000000000      260.7710000000        0.4252607466        0.0000000000
       -0.4818410737        0.1395684988        0.0000054919     1077.7496674294        0.0000000000      260.7710000000        0.4252607466        0.0000000000
       -0.4690549960        0.1778896202        0.0000054919     1077.7496674294        0.0000000000      260.7710000000        0.4252607466        0.0000000000
       -0.4532026892        0.2150474432        0.0000054919     1077.7496674294        0.0000000000      260.7710000000        0.4252607466        0.0000000000
       -0.4344137076        0.2508103847        0.0000054919     1077.7496674294        0.0000000000      260.7710000000        0.4252607466        0.0000000000
       -0.4128228790        0.2849549475        0.0000054919     1077.7496674294        0.0000000000      260.7710000000        0.4252607466        0.0000000000
       -0.3885624613        0.3172572026        0.0000054919     1077.7496674294        0.0000000000      260.7710000000        0.4252607466        0.0000000000
       -0.3617718690        0.3474939525        0.0000054919     1077.7496674294        0.0000000000      260.7710000000        0.4252607466        0.0000000000
       -0.3326340013        0.3754759745        0.0000054919     1077.7496674294        0.0000000000      260.7710000000        0.4252607466        0.0000000000
       -0.3013471882        0.4010326928        0.0000054919     1077.7496674294        0.0000000000      260.7710000000        0.4252607466        0.0000000000
       -0.2681096593        0.4239950154        0.0000054919     1077.7496674294        0.0000000000      260.7710000000        0.4252607466        0.0000000000
       -0.2331243605        0.4441944270        0.0000054919     1077.7496674294        0.0000000000      260.7710000000        0.4252607466        0.0000000000
       -0.1966208871        0.4615004949        0.0000054919     1077.7496674294        0.0000000000      260.7710000000        0.4252607466        0.0000000000
       -0.1588470380        0.4758234880        0.0000054919     1077.7496674294        0.0000000000      260.7710000000        0.4252607466        0.0000000000
       -0.1200475119        0.4870753668        0.0000054919     1077.7496674294        0.0000000000      260.7710000000        0.4252607466        0.0000000000
       -0.0804679441        0.4951654046        0.0000054919     1077.7496674294        0.0000000000      260.7710000000        0.4252607466        0.0000000000
       -0.0403639797        0.5000302776        0.0000054919     1077.7496674294        0.0000000000      260.7710000000        0.4252607466        0.0000000000
        0.0000000000        0.5016669220        0.0000054919     1077.7496674294        0.0000000000      260.7710000000        0.4252607466        0.0000000000
        0.0000000000       -0.5036139219        0.0000054919     1077.7496674294        0.0000000000      260.7710000000        0.4252607466        0.0000000000
       -0.0405145981       -0.5019420675        0.0000054919     1077.7496674294        0.0000000000      260.7710000000        0.4252607466        0.0000000000
       -0.0807683608       -0.4970401735        0.0000054919     1077.7496674294        0.0000000000      260.7710000000        0.4252607466        0.0000000000
       -0.1204995390       -0.4889265838        0.0000054919     1077.7496674294        0.0000000000      260.7710000000        0.4252607466        0.0000000000
       -0.1594490286       -0.4776422349        0.0000054919     1077.7496674294        0.0000000000      260.7710000000        0.4252607466        0.0000000000
       -0.1973643464       -0.4632607368        0.0000054919     1077.7496674294        0.0000000000      260.7710000000        0.4252607466        0.0000000000
       -0.2339995368       -0.4458750545        0.0000054919     1077.7496674294        0.0000000000      260.7710000000        0.4252607466        0.0000000000
       -0.2691170145       -0.4255979139        0.0000054919     1077.7496674294        0.0000000000      260.7710000000        0.4252607466        0.0000000000
       -0.3024890498       -0.4025608223        0.0000054919     1077.7496674294        0.0000000000      260.7710000000        0.4252607466        0.0000000000
       -0.3338992369       -0.3769131854        0.0000054919     1077.7496674294        0.0000000000      260.7710000000        0.4252607466        0.0000000000
       -0.3631438957       -0.3488213365        0.0000054919     1077.7496674294        0.0000000000      260.7710000000        0.4252607466        0.0000000000
       -0.3900333922       -0.3184674559        0.0000054919     1077.7496674294        0.0000000000      260.7710000000        0.4252607466        0.0000000000
       -0.4143933656       -0.2860483884        0.0000054919     1077.7496674294        0.0000000000      260.7710000000        0.4252607466        0.0000000000
       -0.4360658584       -0.2517743666        0.0000054919     1077.7496674294        0.0000000000      260.7710000000        0.4252607466        0.0000000000
       -0.4549103391       -0.2158676479        0.0000054919     1077.7496674294        0.0000000000      260.7710000000        0.4252607466        0.0000000000
       -0.4708046126       -0.1785610737        0.0000054919     1077.7496674294        0.0000000000      260.7710000000        0.4252607466        0.0000000000
       -0.4836456132       -0.1400965608        0.0000054919     1077.7496674294        0.0000000000      260.7710000000        0.4252607466        0.0000000000
       -0.4933500722       -0.1007235336        0.0000054919     1077.7496674294        0.0000000000      260.7710000000        0.4252607466        0.0000000000
       -0.4998550585       -0.0606973067        0.0000054919     1077.7496674294        0.0000000000      260.7710000000        0.4252607466        0.0000000000
       -0.5031183870       -0.0202774306        0.0000054919     1077.7496674294        0.0000000000      260.7710000000        0.4252607466        0.0000000000
       -0.5031148417        0.0202738916        0.0000054919     1077.7496674294        0.0000000000      260.7710000000        0.4252607466        0.0000000000
       -0.4998446192        0.0606932667        0.0000054919     1077.7496674294        0.0000000000      260.7710000000        0.4252607466        0.0000000000
       -0.4933460133        0.1007206392        0.0000054919     1077.7496674294        0.0000000000      260.7710000000        0.4252607466        0.0000000000
       -0.4836588429        0.1400979496        0.0000054919     1077.7496674294        0.0000000000      260.7710000000        0.4252607466        0.0000000000
       -0.4708244665        0.1785644734        0.0000054919     1077.7496674294        0.0000000000      260.7710000000        0.4252607466        0.0000000000
       -0.4549124310        0.2158633774        0.0000054919     1077.7496674294        0.0000000000      260.7710000000        0.4252607466        0.0000000000
       -0.4360526567        0.2517621745        0.0000054919     1077.7496674294        0.0000000000      260.7710000000        0.4252607466        0.0000000000
       -0.4143804142        0.2860364964        0.0000054919     1077.7496674294        0.0000000000      260.7710000000        0.4252607466        0.0000000000
       -0.3900284815        0.3184615855        0.0000054919     1077.7496674294        0.0000000000      260.7710000000        0.4252607466        0.0000000000
       -0.3631368618        0.3488134635        0.0000054919     1077.7496674294        0.0000000000      260.7710000000        0.4252607466        0.0000000000
       -0.3338890902        0.3769021634        0.0000054919     1077.7496674294        0.0000000000      260.7710000000        0.4252607466        0.0000000000
       -0.3024841899        0.4025564148        0.0000054919     1077.7496674294        0.0000000000      260.7710000000        0.4252607466        0.0000000000
       -0.2691211445        0.4256064953        0.0000054919     1077.7496674294        0.0000000000      260.7710000000        0.4252607466        0.0000000000
       -0.2340037076        0.4458833292        0.0000054919     1077.7496674294        0.0000000000      260.7710000000        0.4252607466        0.0000000000
       -0.1973623197        0.4632559801        0.0000054919     1077.7496674294        0.0000000000      260.7710000000        0.4252607466        0.0000000000
       -0.1594456645        0.4776342873        0.0000054919     1077.7496674294        0.0000000000      260.7710000000        0.4252607466        0.0000000000
       -0.1204994001        0.4889300138        0.0000054919     1077.7496674294        0.0000000000      260.7710000000        0.4252607466        0.0000000000
       -0.0807700532        0.4970519282        0.0000054919     1077.7496674294        0.0000000000      260.7710000000        0.4252607466        0.0000000000
       -0.0405150102        0.5019427781        0.0000054919     1077.7496674294        0.0000000000      260.7710000000        0.4252607466        0.0000000000
        0.0000000000        0.5036065367        0.0000054919     1077.7496674294        0.0000000000      260.7710000000        0.4252607466        0.0000000000
        0.0000000000       -0.5058788722        0.0000054919     1077.7496674294        0.0000000000      260.7710000000        0.4252607466        0.0000000000
       -0.0406909618       -0.5041753576        0.0000054919     1077.7496674294        0.0000000000      260.7710000000        0.4252607466        0.0000000000
       -0.0811211454       -0.4992431339        0.0000054919     1077.7496674294        0.0000000000      260.7710000000        0.4252607466        0.0000000000
       -0.1210272256       -0.4910923144        0.0000054919     1077.7496674294        0.0000000000      260.7710000000        0.4252607466        0.0000000000
       -0.1601480658       -0.4797567547        0.0000054919     1077.7496674294        0.0000000000      260.7710000000        0.4252607466        0.0000000000
       -0.1982301454       -0.4653106648        0.0000054919     1077.7496674294        0.0000000000      260.7710000000        0.4252607466        0.0000000000
       -0.2350263890       -0.4478472378        0.0000054919     1077.7496674294        0.0000000000      260.7710000000        0.4252607466        0.0000000000
       -0.2702981708       -0.4274796873        0.0000054919     1077.7496674294        0.0000000000      260.7710000000        0.4252607466        0.0000000000
       -0.3038167731       -0.4043401086        0.0000054919     1077.7496674294        0.0000000000      260.7710000000        0.4252607466        0.0000000000
       -0.3353648542       -0.3785785735        0.0000054919     1077.7496674294        0.0000000000      260.7710000000        0.4252607466        0.0000000000
       -0.3647378562       -0.3503621534        0.0000054919     1077.7496674294        0.0000000000      260.7710000000        0.4252607466        0.0000000000
       -0.3917453299       -0.3198738331        0.0000054919     1077.7496674294        0.0000000000      260.7710000000        0.4252607466        0.0000000000
       -0.4162121668       -0.2873113226        0.0000054919     1077.7496674294        0.0000000000      260.7710000000        0.4252607466        0.0000000000
       -0.4379797322       -0.2528857744        0.0000054919     1077.7496674294        0.0000000000      260.7710000000        0.4252607466        0.0000000000
       -0.4569068919       -0.2168204146        0.0000054919     1077.7496674294        0.0000000000      260.7710000000        0.4252607466        0.0000000000
       -0.4728709262       -0.1793490973        0.0000054919     1077.7496674294        0.0000000000      260.7710000000        0.4252607466        0.0000000000
       -0.4857683256       -0.1407147891        0.0000054919     1077.7496674294        0.0000000000      260.7710000000        0.4252607466        0.0000000000
       -0.4955154619       -0.1011679956        0.0000054919     1077.7496674294        0.0000000000      260.7710000000        0.4252607466        0.0000000000
       -0.5020491308       -0.0609651375        0.0000054919     1077.7496674294        0.0000000000      260.7710000000        0.4252607466        0.0000000000
       -0.5053269625       -0.0203668896        0.0000054919     1077.7496674294        0.0000000000      260.7710000000        0.4252607466        0.0000000000
       -0.5053234206        0.0203634008        0.0000054919     1077.7496674294        0.0000000000      260.7710000000        0.4252607466        0.0000000000
       -0.5020387012        0.0609611481        0.0000054919     1077.7496674294        0.0000000000      260.7710000000        0.4252607466        0.0000000000
       -0.4955114110        0.1011651514        0.0000054919     1077.7496674294        0.0000000000      260.7710000000        0.4252607466        0.0000000000
       -0.4857815550        0.1407162259        0.0000054919     1077.7496674294        0.0000000000      260.7710000000        0.4252607466        0.0000000000
       -0.4728907778        0.1793525443        0.0000054919     1077.7496674294        0.0000000000      260.7710000000        0.4252607466        0.0000000000
       -0.4569089939        0.2168161965        0.0000054919     1077.7496674294        0.0000000000      260.7710000000        0.4252607466        0.0000000000
       -0.4379665514        0.2528736400        0.0000054919     1077.7496674294        0.0000000000      260.7710000000        0.4252607466        0.0000000000
       -0.4161992375        0.2872994890        0.0000054919     1077.7496674294        0.0000000000      260.7710000000        0.4252607466        0.0000000000
       -0.3917404376        0.3198680183        0.0000054919     1077.7496674294        0.0000000000      260.7710000000        0.4252607466        0.0000000000
       -0.3647308427        0.3503543379        0.0000054919     1077.7496674294        0.0000000000      260.7710000000        0.4252607466        0.0000000000
       -0.3353547303        0.3785676117        0.0000054919     1077.7496674294        0.0000000000      260.7710000000        0.4252607466        0.0000000000
       -0.3038119329        0.4043357581        0.0000054919     1077.7496674294        0.0000000000      260.7710000000        0.4252607466        0.0000000000
       -0.2703023147        0.4274883183        0.0000054919     1077.7496674294        0.0000000000      260.7710000000        0.4252607466        0.0000000000
       -0.2350305727        0.4478555627        0.0000054919     1077.7496674294        0.0000000000      260.7710000000        0.4252607466        0.0000000000
       -0.1982281340        0.4653059661        0.0000054919     1077.7496674294        0.0000000000      260.7710000000        0.4252607466        0.0000000000
       -0.1601447160        0.4797488668        0.0000054919     1077.7496674294        0.0000000000      260.7710000000        0.4252607466        0.0000000000
       -0.1210270967        0.4910957966        0.0000054919     1077.7496674294        0.0000000000      260.7710000000        0.4252607466        0.0000000000
       -0.0811228439        0.4992549348        0.0000054919     1077.7496674294        0.0000000000      260.7710000000        0.4252607466        0.0000000000
       -0.0406913774        0.5041761191        0.0000054919     1077.7496674294        0.0000000000      260.7710000000        0.4252607466        0.0000000000
        0.0000000000        0.5058715404        0.0000054919     1077.7496674294        0.0000000000      260.7710000000        0.4252607466        0.0000000000
        0.0000000000       -0.5085387633        0.0000054919     1077.7496674294        0.0000000000      260.7710000000        0.4252607466        0.0000000000
       -0.0408980782       -0.5067980675        0.0000054919     1077.7496674294        0.0000000000      260.7710000000        0.4252607466        0.0000000000
       -0.0815354454       -0.5018302251        0.0000054919     1077.7496674294        0.0000000000      260.7710000000        0.4252607466        0.0000000000
       -0.1216469256       -0.4936356836        0.0000054919     1077.7496674294        0.0000000000      260.7710000000        0.4252607466        0.0000000000
       -0.1609689952       -0.4822399831        0.0000054919     1077.7496674294        0.0000000000      260.7710000000        0.4252607466        0.0000000000
       -0.1992469153       -0.4677180380        0.0000054919     1077.7496674294        0.0000000000      260.7710000000        0.4252607466        0.0000000000
       -0.2362322953       -0.4501633096        0.0000054919     1077.7496674294        0.0000000000      260.7710000000        0.4252607466        0.0000000000
       -0.2716852878       -0.4296895840        0.0000054919     1077.7496674294        0.0000000000      260.7710000000        0.4252607466        0.0000000000
       -0.3053760146       -0.4064296471        0.0000054919     1077.7496674294        0.0000000000      260.7710000000        0.4252607466        0.0000000000
       -0.3370860348       -0.3805343530        0.0000054919     1077.7496674294        0.0000000000      260.7710000000        0.4252607466        0.0000000000
       -0.3666097597       -0.3521716397        0.0000054919     1077.7496674294        0.0000000000      260.7710000000        0.4252607466        0.0000000000
       -0.3937557831       -0.3215254370        0.0000054919     1077.7496674294        0.0000000000      260.7710000000        0.4252607466        0.0000000000
       -0.4183481180       -0.2887944708        0.0000054919     1077.7496674294        0.0000000000      260.7710000000        0.4252607466        0.0000000000
       -0.4402273345       -0.2541909738        0.0000054919     1077.7496674294        0.0000000000      260.7710000000        0.4252607466        0.0000000000
       -0.4592515907       -0.2179393102        0.0000054919     1077.7496674294        0.0000000000      260.7710000000        0.4252607466        0.0000000000
       -0.4752975506       -0.1802745229        0.0000054919     1077.7496674294        0.0000000000      260.7710000000        0.4252607466        0.0000000000
       -0.4882611837       -0.1414408115        0.0000054919     1077.7496674294        0.0000000000      260.7710000000        0.4252607466        0.0000000000
       -0.4980584395       -0.1016899513        0.0000054919     1077.7496674294        0.0000000000      260.7710000000        0.4252607466        0.0000000000
       -0.5046257931       -0.0612796621        0.0000054919     1077.7496674294        0.0000000000      260.7710000000        0.4252607466        0.0000000000
       -0.5079206573       -0.0204719388        0.0000054919     1077.7496674294        0.0000000000      260.7710000000        0.4252607466        0.0000000000
       -0.5079171199        0.0204685272        0.0000054919     1077.7496674294        0.0000000000      260.7710000000        0.4252607466        0.0000000000
       -0.5046153761        0.0612757504        0.0000054919     1077.7496674294        0.0000000000      260.7710000000        0.4252607466        0.0000000000
       -0.4980544003        0.1016871844        0.0000054919     1077.7496674294        0.0000000000      260.7710000000        0.4252607466        0.0000000000
       -0.4882744159        0.1414423231        0.0000054919     1077.7496674294        0.0000000000      260.7710000000        0.4252607466        0.0000000000
       -0.4753174034        0.1802780441        0.0000054919     1077.7496674294        0.0000000000      260.7710000000        0.4252607466        0.0000000000