 variables=x,y,I11,I12,I13,I14,I15,I16,I17,I18,I19,CF
  zone i=           39  j=           39
   0.0025000000   0.0025000000  -0.0000003554  -0.0000002545  -0.0000002545  -0.0000003557  -0.0000001390  -0.0000001391   1.2500007735   0.0000008427   1.2500007745
  11.8163626078
   0.0079960748   0.0025000000  -0.0004580880  -0.0004891317  -0.0004407668  -0.0009919889  -0.0003095466  -0.0004894890   1.2514920532   0.0017516543   1.2522284094
  11.8218814972
   0.0145748338   0.0025000000  -0.0007527346  -0.0442511813  -0.0006448030  -0.1912932186  -0.0004352749  -0.0677330268   1.4209385752   0.0026328030   1.7890421508
  12.5418026560
   0.0224303973   0.0025000000   0.0086768953  -0.0559206454   0.0076513447  -0.2124142136   0.0043492136  -0.0766315598   1.4729641098  -0.0276854657   1.8563996782
  12.6428370295
   0.0317833366   0.0025000000   0.0127734375  -0.0631627688   0.0095744208  -0.2226500513   0.0058236854  -0.0812320853   1.5080023734  -0.0362455091   1.8905300607
  12.7000857367
   0.0428806198   0.0025000000   0.0142580157  -0.0684119795   0.0095851622  -0.2298790957   0.0061011768  -0.0844892604   1.5344343792  -0.0373796991   1.9146679424
  12.7420116631
   0.0559936858   0.0025000000   0.0144346804  -0.0726425549   0.0089992907  -0.2357587694   0.0059122534  -0.0871236536   1.5560547674  -0.0358173007   1.9342124468
  12.7762111891
   0.0714138602   0.0025000000   0.0139702659  -0.0762505308   0.0082511751  -0.2407463866   0.0055454150  -0.0893594834   1.5746087301  -0.0333200928   1.9507855095
  12.8053980726
   0.0894442226   0.0025000000   0.0132164389  -0.0793830122   0.0074962603  -0.2449640845   0.0051246456  -0.0912654628   1.5908340448  -0.0306018581   1.9648733435
  12.8304183931
   0.1103870411   0.0025000000   0.0123536715  -0.0821084663   0.0067881059  -0.2485111123   0.0047033355  -0.0928858546   1.6050844214  -0.0279491564   1.9768072112
  12.8518308216
   0.1345260708   0.0025000000   0.0114778747  -0.0844715913   0.0061461348  -0.2514944744   0.0043060076  -0.0942618336   1.6175659757  -0.0254848798   1.9869076846
  12.8701603302
   0.1621034798   0.0025000000   0.0106453756  -0.0865043642   0.0055795674  -0.2539994468   0.0039456732  -0.0954256167   1.6284083703  -0.0232727263   1.9954278331
  12.8857991428
   0.1932919750   0.0025000000   0.0098877190  -0.0882307533   0.0050906541  -0.2560845783   0.0036283668  -0.0964000650   1.6377012248  -0.0213392868   2.0025462551
  12.8990033751
   0.2281638789   0.0025000000   0.0092216585  -0.0896730920   0.0046777392  -0.2577988575   0.0033561617  -0.0972048573   1.6455280608  -0.0196901591   2.0084149724
  12.9099923051
   0.2666603307   0.0025000000   0.0086557083  -0.0908527481   0.0043375425  -0.2591840304   0.0031291400  -0.0978572508   1.6519728291  -0.0183208794   2.0131658390
  12.9189619620
   0.3085651711   0.0025000000   0.0081935039  -0.0917893640   0.0040661594  -0.2602747236   0.0029463439  -0.0983719359   1.6571170746  -0.0172220395   2.0169100895
  12.9260825779
   0.3534889397   0.0025000000   0.0078358456  -0.0924999318   0.0038596929  -0.2610983692   0.0028063602  -0.0987608306   1.6610347542  -0.0163824668   2.0197373043
  12.9314943568
   0.4008682421   0.0025000000   0.0075823842  -0.0929984527   0.0037148955  -0.2616765669   0.0027078286  -0.0990334146   1.6637889222  -0.0157921718   2.0217184515
  12.9353113256
   0.4499841204   0.0025000000   0.0074326828  -0.0932946117   0.0036294112  -0.2620228085   0.0026497376  -0.0991958472   1.6654244352  -0.0154437207   2.0228992290
  12.9376054186
   0.5000000000   0.0025000000   0.0073853446  -0.0933938529   0.0036015044  -0.2621431118   0.0026311453  -0.0992511660   1.6659679729  -0.0153311376   2.0233016410
  12.9384097043
   0.5500158796   0.0025000000   0.0074399164  -0.0932988369   0.0036303253  -0.2620421136   0.0026517034  -0.0992012855   1.6654319517  -0.0154516940   2.0229400377
  12.9377503748
   0.5991317579   0.0025000000   0.0075980873  -0.0930063346   0.0037169623  -0.2617139667   0.0027121254  -0.0990438183   1.6638012525  -0.0158095532   2.0217962909
  12.9355943990
   0.6465110603   0.0025000000   0.0078607521  -0.0925084712   0.0038631867  -0.2611448074   0.0028132338  -0.0987730686   1.6610400970  -0.0164107585   2.0198270887
  12.9318653901
   0.6914348289   0.0025000000   0.0082293457  -0.0917938876   0.0040716454  -0.2603161998   0.0029563546  -0.0983811432   1.6570970432  -0.0172642560   2.0169732584
  12.9264626488
   0.7333396693   0.0025000000   0.0087050003  -0.0908472974   0.0043458980  -0.2592024363   0.0031431119  -0.0978571330   1.6519045207  -0.0183815311   2.0131527193
  12.9192492487
   0.7718361211   0.0025000000   0.0092875896  -0.0896500331   0.0046900232  -0.2577702129   0.0033751289  -0.0971871146   1.6453831791  -0.0197748612   2.0082601155
  12.9100530250
   0.8067080250   0.0025000000   0.0099745270  -0.0881810480   0.0051081344  -0.2559789815   0.0036536399  -0.0963544293   1.6374486643  -0.0214550807   2.0021687698
  12.8986725370
   0.8378965202   0.0025000000   0.0107592161  -0.0864187496   0.0056036601  -0.2537830904   0.0039789570  -0.0953406604   1.6280220147  -0.0234284142   1.9947376812
  12.8848935523
   0.8654739292   0.0025000000   0.0116300180  -0.0843427622   0.0061788658  -0.2511328728   0.0043500596  -0.0941262771   1.6170398823  -0.0256942691   1.9858159552
  12.8685003635
   0.8896129589   0.0025000000   0.0125687331  -0.0819362411   0.0068337667  -0.2479768469   0.0047639128  -0.0926917224   1.6044665571  -0.0282409432   1.9752506576
  12.8492930720
   0.9105557774   0.0025000000   0.0135497111  -0.0791891897   0.0075651545  -0.2442669649   0.0052149315  -0.0910195907   1.5903092344  -0.0310419586   1.9629033968
  12.8271200443
   0.9285861398   0.0025000000   0.0145398051  -0.0761024029   0.0083657715  -0.2399669263   0.0056945820  -0.0890978479   1.5746340389  -0.0340534484   1.9486750964
  12.8019240158
   0.9440063142   0.0025000000   0.0155000723  -0.0726897348   0.0092241894  -0.2350568199   0.0061915262  -0.0869215271   1.5575730375  -0.0372145853   1.9325204885
  12.7737615232
   0.9571193802   0.0025000000   0.0163877456  -0.0689846694   0.0101244096  -0.2295570273   0.0066918058  -0.0845009482   1.5393452527  -0.0404475784   1.9145141037
  12.7429159566
   0.9682166634   0.0025000000   0.0171692274  -0.0650416909   0.0110534714  -0.2235497682   0.0071838536  -0.0818680358   1.5202487478  -0.0436893051   1.8949028784
  12.7099835711
   0.9775696027   0.0025000000   0.0177152198  -0.0610132136   0.0118914113  -0.2173599404   0.0076004199  -0.0791467447   1.5010950782  -0.0463968574   1.8748737400
  12.6759582239
   0.9854251662   0.0025000000   0.0188848348  -0.0569244102   0.0135033016  -0.2129011208   0.0084426953  -0.0768406205   1.4820890507  -0.0520838731   1.8608457762
  12.6457586555
   0.9920039252   0.0025000000   0.0189401922  -0.0137255015   0.0142615856  -0.0237242584   0.0087553167  -0.0100402280   1.3135372544  -0.0543291210   1.3243160932
  11.9453174649
   0.9975000000   0.0025000000   0.0097986836  -0.0062750051   0.0055398317  -0.0073626369   0.0038666102  -0.0034980678   1.2816493527  -0.0229391245   1.2747223490
  11.8671597895
   0.0025000000   0.0079960748  -0.0010963497  -0.0004701374  -0.0004848153  -0.0004283805  -0.0005165437  -0.0003096727   1.2526381760   0.0018178647   1.2513986323
  11.8219073193
   0.0079960748   0.0079960748  -0.0601835765  -0.0380452989  -0.0379962964  -0.0599548260  -0.0282304504  -0.0281778650   1.4432091894   0.1464575959   1.4423311425
  12.2156698061
   0.0145748338   0.0079960748  -0.0591593502  -0.1019119622  -0.0353475379  -0.3186861917  -0.0268906934  -0.1330751666   1.7169092895   0.1388385776   2.1860865008
  13.3082869403
   0.0224303973   0.0079960748  -0.0155424347  -0.1342438017  -0.0055383336  -0.3659446881  -0.0051149095  -0.1564845743   1.8860526777   0.0252652248   2.3437922118
  13.6031093139
   0.0317833366   0.0079960748   0.0042336738  -0.1492864910   0.0029574431  -0.3792431516   0.0026205586  -0.1644037134   1.9777865249  -0.0122459814   2.3942766446
  13.7166890353
   0.0428806198   0.0079960748   0.0125092752  -0.1569672932   0.0050574030  -0.3845134047   0.0051683979  -0.1679566574   2.0309642863  -0.0235287111   2.4160067504
  13.7713565705
   0.0559936858   0.0079960748   0.0151665175  -0.1613339271   0.0051477651  -0.3873102467   0.0056792891  -0.1699467621   2.0639705234  -0.0252638044   2.4278953773
  13.8018769627
   0.0714138602   0.0079960748   0.0152307504  -0.1641277676   0.0046697943  -0.3891149203   0.0054221511  -0.1712633449   2.0861077439  -0.0237136396   2.4356263012
  13.8210535263
   0.0894442226   0.0079960748   0.0142232819  -0.1660911357   0.0040940375  -0.3903301701   0.0049202739  -0.1722000581   2.1020375087  -0.0212604151   2.4410005832
  13.8338417398
   0.1103870411   0.0079960748   0.0128686177  -0.1675654486   0.0035558317  -0.3911526360   0.0043770940  -0.1728916550   2.1141888180  -0.0187522175   2.4448542214
  13.8427671737
   0.1345260708   0.0079960748   0.0114937780  -0.1687267723   0.0030864050  -0.3917439670   0.0038708864  -0.1734280834   2.1238776891  -0.0164705124   2.4477673392
  13.8494241769
   0.1621034798   0.0079960748   0.0102495998  -0.1696691485   0.0026946720  -0.3922021731   0.0034313740  -0.1738608100   2.1318172174  -0.0145178006   2.4500809717
  13.8546975211
   0.1932919750   0.0079960748   0.0091873186  -0.1704401926   0.0023757970  -0.3925675033   0.0030642124  -0.1742135225   2.1383796391  -0.0129016887   2.4519479631
  13.8589757643
   0.2281638789   0.0079960748   0.0083112169  -0.1710681475   0.0021202601  -0.3928624071   0.0027649077  -0.1745005827   2.1437772606  -0.0115920828   2.4534581452
  13.8624668699
   0.2666603307   0.0079960748   0.0076095156  -0.1715728148   0.0019191104  -0.3931016424   0.0025266389  -0.1747321682   2.1481501957  -0.0105533671   2.4546732041
  13.8653039819
   0.3085651711   0.0079960748   0.0070662147  -0.1719686707   0.0017648532  -0.3932944226   0.0023426006  -0.1749153838   2.1515982091  -0.0097527497   2.4556349035
  13.8675730721
   0.3534889397   0.0079960748   0.0066664499  -0.1722660941   0.0016516114  -0.3934456029   0.0022070205  -0.1750548613   2.1541939531  -0.0091634940   2.4563692944
  13.8693246198
   0.4008682421   0.0079960748   0.0063990885  -0.1724727657   0.0015752567  -0.3935586855   0.0021158208  -0.1751541186   2.1559913808  -0.0087665473   2.4568954608
  13.8705962708
   0.4499841204   0.0079960748   0.0062581221  -0.1725924000   0.0015335237  -0.3936324728   0.0020666855  -0.1752142162   2.1570197213  -0.0085512454   2.4572163004
  13.8713888745
   0.5000000000   0.0079960748   0.0062364363  -0.1726260674   0.0015243063  -0.3936620098   0.0020572725  -0.1752341640   2.1572950184  -0.0085074709   2.4573220561
  13.8716785750
   0.5500158796   0.0079960748   0.0063342936  -0.1725753505   0.0015467212  -0.3936510159   0.0020874135  -0.1752155287   2.1568237677  -0.0086328415   2.4572235526
  13.8714874477
   0.5991317579   0.0079960748   0.0065603060  -0.1724352962   0.0016034565  -0.3935927756   0.0021598132  -0.1751550748   2.1555748304  -0.0089397430   2.4568986711
  13.8707648557
   0.6465110603   0.0079960748   0.0069227605  -0.1721977865   0.0016974276  -0.3934758803   0.0022773697  -0.1750471791   2.1534985904  -0.0094422753   2.4563100709
  13.8694265118
   0.6914348289   0.0079960748   0.0074354960  -0.1718528002   0.0018328440  -0.3932899773   0.0024447915  -0.1748858539   2.1505309945  -0.0101612605   2.4554206557
  13.8673858632
   0.7333396693   0.0079960748   0.0081177647  -0.1713865297   0.0020161123  -0.3930209823   0.0026687456  -0.1746629190   2.1465854254  -0.0111273461   2.4541794619
  13.8645266922
   0.7718361211   0.0079960748   0.0089938005  -0.1707811302   0.0022557621  -0.3926496360   0.0029578273  -0.1743674811   2.1415542341  -0.0123805209   2.4525178258
  13.8606954240
   0.8067080250   0.0079960748   0.0100921361  -0.1700148403   0.0025624672  -0.3921513514   0.0033224896  -0.1739858892   2.1353123505  -0.0139698310   2.4503492952
  13.8557007015
   0.8378965202   0.0079960748   0.0114445313  -0.1690632443   0.0029490106  -0.3914986564   0.0037748150  -0.1735027501   2.1277267436  -0.0159527013   2.4475766655
  13.8493316063
   0.8654739292   0.0079960748   0.0130852813  -0.1678999002   0.0034308365  -0.3906615747   0.0043286633  -0.1729013835   2.1186638948  -0.0183961925   2.4440937640
  13.8413636076
   0.8896129589   0.0079960748   0.0150485279  -0.1664983048   0.0040256202  -0.3896104115   0.0049988439  -0.1721648481   2.1080036894  -0.0213741135   2.4397938609
  13.8315800853
   0.9105557774   0.0079960748   0.0173649635  -0.1648350188   0.0047529488  -0.3883205664   0.0058004046  -0.1712782625   2.0956591915  -0.0249640685   2.4345846248
  13.8198121991
   0.9285861398   0.0079960748   0.0200586976  -0.1628937912   0.0056334897  -0.3867830206   0.0067476384  -0.1702331883   2.0815967087  -0.0292439568   2.4284172387
  13.8060114093
   0.9440063142   0.0079960748   0.0231406682  -0.1606737948   0.0066858200  -0.3850174415   0.0078520717  -0.1690328951   2.0658744778  -0.0342779559   2.4213287734
  13.7903227529
   0.9571193802   0.0079960748   0.0266148525  -0.1581993118   0.0079292049  -0.3831141970   0.0091219131  -0.1677081885   2.0486751516  -0.0401286639   2.4135604245
  13.7733120286
   0.9682166634   0.0079960748   0.0303606684  -0.1555978963   0.0093375689  -0.3813474127   0.0105248403  -0.1663681462   2.0308264214  -0.0465911219   2.4059677920
  13.7564610935
   0.9775696027   0.0079960748   0.0349240488  -0.1527942907   0.0109692702  -0.3803664780   0.0122432840  -0.1651678707   2.0111885770  -0.0541958320   2.4002392564
  13.7418115416
   0.9854251662   0.0079960748   0.0935314332  -0.1180757378   0.0467202337  -0.3350356006   0.0390913859  -0.1423875799   1.8286308334  -0.1940735430   2.2547063393
  13.4115524003
   0.9920039252   0.0079960748   0.0994256831  -0.0564463269   0.0516589499  -0.0763292495   0.0424764939  -0.0379923208   1.5663249435  -0.2122494677   1.5038735022
  12.3648557435
   0.9975000000   0.0079960748   0.0578767684  -0.0287060894   0.0220228075  -0.0261241518   0.0211863025  -0.0148295302   1.4293090148  -0.0999300303   1.3444392997
  12.0702153387
   0.0025000000   0.0145748338  -0.1928547754  -0.0004829653  -0.0444187810  -0.0005486377  -0.0682496728  -0.0003219136   1.7957768828   0.0016549533   1.4218601963
  12.5393572510
   0.0079960748   0.0145748338  -0.3229334846  -0.0346667525  -0.1025067175  -0.0579122506  -0.1346067338  -0.0262744304   2.2068290778   0.1338577849   1.7205222357
  13.2978336019
   0.0145748338   0.0145748338  -0.6069187024  -0.1976527447  -0.1960034544  -0.6100380834  -0.2269024103  -0.2269919670  16.9821581205   0.1736808621  16.9693627774
  26.9209956101
   0.0224303973   0.0145748338  -0.2360554690  -0.2142341126  -0.0605467814  -0.6167879018  -0.0795909213  -0.2358558431  16.6215543480   0.0351367081  16.4546028981
  25.4068210997
   0.0317833366   0.0145748338  -0.0918216062  -0.2227716242  -0.0182303003  -0.6135234489  -0.0264458965  -0.2378853588  16.8186093391  -0.0095089620  16.4739852061
  25.2047472939
   0.0428806198   0.0145748338  -0.0260871109  -0.2280010720  -0.0029640996  -0.6125261999  -0.0046569494  -0.2392388331  17.0007252624  -0.0235212656  16.5362914096
  25.1990588433
   0.0559936858   0.0145748338   0.0033065075  -0.2315845003   0.0023592337  -0.6133938706   0.0039423445  -0.2405452512  17.1216827685  -0.0263450890  16.5849159403
  25.2200916182
   0.0714138602   0.0145748338   0.0154730236  -0.2342451812   0.0040074553  -0.6150220672   0.0069106491  -0.2417768379  17.1963106670  -0.0252226320  16.6171368273
  25.2370023926
   0.0894442226   0.0145748338   0.0197027533  -0.2362583920   0.0043754141  -0.6165493923   0.0075914038  -0.2427895115  17.2399468418  -0.0229543581  16.6356164559
  25.2435883862
   0.1103870411   0.0145748338   0.0202993266  -0.2377547950   0.0042812767  -0.6175787087   0.0073525721  -0.2435177721  17.2655039470  -0.0204988339  16.6454798167
  25.2433089504
   0.1345260708   0.0145748338   0.0192627109  -0.2389138132   0.0039963611  -0.6182896932   0.0067611542  -0.2440622201  17.2814976370  -0.0181778983  16.6510492676
  25.2403300245
   0.1621034798   0.0145748338   0.0177891906  -0.2398406643   0.0037032650  -0.6188114795   0.0061365022  -0.2444899364  17.2920980808  -0.0161611438  16.6542082034
  25.2362209470
   0.1932919750   0.0145748338   0.0162748378  -0.2405809862   0.0034244404  -0.6191730475   0.0055591095  -0.2448196202  17.2993570423  -0.0144662592  16.6558003462
  25.2316733849
   0.2281638789   0.0145748338   0.0148241276  -0.2411891531   0.0031473839  -0.6194767412   0.0050335530  -0.2450930192  17.3048636788  -0.0130588265  16.6568613876
  25.2278671676
   0.2666603307   0.0145748338   0.0135548106  -0.2417043161   0.0028950749  -0.6197975755   0.0045845913  -0.2453395481  17.3094359428  -0.0119193676  16.6579441082
  25.2253700077
   0.3085651711   0.0145748338   0.0125221397  -0.2421384178   0.0026830863  -0.6201403047   0.0042236269  -0.2455640291  17.3132360446  -0.0110272838  16.6590647878
  25.2240373665
   0.3534889397   0.0145748338   0.0117401144  -0.2424942287   0.0025177639  -0.6204899015   0.0039516558  -0.2457639511  17.3162647797  -0.0103619917  16.6601372542
  25.2236261201
   0.4008682421   0.0145748338   0.0112139119  -0.2427699298   0.0024033022  -0.6208238694   0.0037684963  -0.2459336853  17.3184392063  -0.0099087875  16.6610245773
  25.2238470522
   0.4499841204   0.0145748338   0.0109247858  -0.2429619228   0.0023351000  -0.6211210867   0.0036666635  -0.2460670955  17.3197167532  -0.0096564153  16.6616531435
  25.2245438067
   0.5000000000   0.0145748338   0.0108534913  -0.2430688452   0.0023097967  -0.6213706901   0.0036401004  -0.2461607938  17.3201929593  -0.0095927276  16.6620797748
  25.2257698691
   0.5500158796   0.0145748338   0.0110022765  -0.2430939323   0.0023257954  -0.6215816768   0.0036882675  -0.2462182125  17.3198562938  -0.0097144325  16.6623232484
  25.2275334370
   0.5991317579   0.0145748338   0.0114057079  -0.2430226094   0.0023934134  -0.6217187930   0.0038232899  -0.2462262697  17.3185648336  -0.0100390524  16.6622524347
  25.2296833578
   0.6465110603   0.0145748338   0.0120830368  -0.2428340535   0.0025159843  -0.6217326947   0.0040521578  -0.2461664164  17.3161773418  -0.0105822808  16.6617426816
  25.2320841392
   0.6914348289   0.0145748338   0.0130379150  -0.2425119017   0.0026898780  -0.6215933591   0.0043767031  -0.2460260349  17.3125912343  -0.0113602543  16.6607375795
  25.2346950815
   0.7333396693   0.0145748338   0.0142826466  -0.2420331365   0.0029130631  -0.6212579559   0.0048024712  -0.2457873227  17.3076821229  -0.0124001220  16.6591696730
  25.2374837892
   0.7718361211   0.0145748338   0.0158349601  -0.2413687342   0.0031838116  -0.6206714846   0.0053373374  -0.2454274177  17.3013266334  -0.0137368115  16.6569784346
  25.2404419387
   0.8067080250   0.0145748338   0.0176878195  -0.2404840594   0.0034909057  -0.6197677278   0.0059817311  -0.2449189231  17.2934390867  -0.0154074477  16.6541398376
  25.2436189241
   0.8378965202   0.0145748338   0.0198094017  -0.2393427550   0.0038138699  -0.6184786958   0.0067286119  -0.2442330255  17.2840204752  -0.0174512804  16.6507079327
  25.2471619640
   0.8654739292   0.0145748338   0.0221354906  -0.2379107636   0.0041212554  -0.6167449280   0.0075616961  -0.2433438735  17.2731983861  -0.0199084294  16.6468490136
  25.2513508903
   0.8896129589   0.0145748338   0.0245455405  -0.2361639230   0.0043633711  -0.6145343262   0.0084464785  -0.2422351785  17.2612440961  -0.0228154680  16.6428468922
  25.2565817779
   0.9105557774   0.0145748338   0.0268334016  -0.2341076872   0.0044633875  -0.6118964781   0.0093200361  -0.2409189756  17.2486814050  -0.0262024384  16.6392156289
  25.2634996002
   0.9285861398   0.0145748338   0.0287164269  -0.2317967517   0.0043192029  -0.6090169805   0.0100946150  -0.2394541342  17.2351176494  -0.0300855453  16.6355611243
  25.2712385434
   0.9440063142   0.0145748338   0.0296490085  -0.2294129271   0.0037418445  -0.6064386207   0.0105930128  -0.2380265103  17.2194653213  -0.0344144097  16.6308297263
  25.2775130888
   0.9571193802   0.0145748338   0.0291004525  -0.2274292977   0.0025720788  -0.6054449125   0.0106313153  -0.2370853087  17.1959804849  -0.0390170098  16.6192613604
  25.2724144334
   0.9682166634   0.0145748338   0.0274118961  -0.2267758249   0.0007244031  -0.6086788337   0.0103023149  -0.2375600369  17.1291014753  -0.0435436084  16.5680680084
  25.2087586357
   0.9775696027   0.0145748338   0.2718586850  -0.2360900024   0.0642361993  -0.6428425409   0.0931014208  -0.2483587088  16.6638141916  -0.0647306546  16.4010276266
  25.1957502161
   0.9854251662   0.0145748338   0.6660535874  -0.2166365522   0.2071335263  -0.6370243503   0.2486210650  -0.2402799345  17.1073227721  -0.2332669222  17.0093458096
  26.7964271469
   0.9920039252   0.0145748338   0.3514792726  -0.0529693708   0.1023140998  -0.0759614196   0.1462649767  -0.0364006978   2.3178005512  -0.2019851139   1.7312154017
  13.3467975033
   0.9975000000   0.0145748338   0.2318753820  -0.0281264906   0.0478746197  -0.0277059762   0.0841155567  -0.0148896534   1.9475382644  -0.0991502252   1.4512965914
  12.6705049872
   0.0025000000   0.0224303973  -0.2142326586   0.0081134580  -0.0562654290   0.0092230291  -0.0772705694   0.0046388075   1.8650299730  -0.0302004905   1.4752198088
  12.6375879397
   0.0079960748   0.0224303973  -0.3709422684  -0.0040825545  -0.1354044799  -0.0130746819  -0.1583822473  -0.0039232276   2.3698625286   0.0155353175   1.8947155293
  13.5854506674
   0.0145748338   0.0224303973  -0.6153558555  -0.0610999285  -0.2138076086  -0.2354665024  -0.2366065659  -0.0782147779  16.4876076795   0.0284889542  16.6338089739
  25.3889345413
   0.0224303973   0.0224303973  -0.2264593037  -0.0628124086  -0.0639909528  -0.2223418352  -0.0780355075  -0.0751794719  15.5375826461  -0.0372703683  15.5302334550
  23.0009206608
   0.0317833366   0.0224303973  -0.0879156318  -0.0598822041  -0.0205746245  -0.2045967279  -0.0250021584  -0.0694936692  15.5880487413  -0.0467696190  15.3762203707
  22.5379166505
   0.0428806198   0.0224303973  -0.0258111923  -0.0581100975  -0.0059795670  -0.1954151274  -0.0040329300  -0.0665709713  15.7627933693  -0.0435956294  15.4010482856
  22.4741425176
   0.0559936858   0.0224303973   0.0012827127  -0.0578502924  -0.0016296001  -0.1921683762   0.0036275076  -0.0656981764  15.9019442605  -0.0383784806  15.4436988163
  22.4858578379
   0.0714138602   0.0224303973   0.0123339552  -0.0585302205  -0.0005632581  -0.1919144284   0.0059701446  -0.0658616760  15.9956480353  -0.0337225074  15.4778325791
  22.5059988029
   0.0894442226   0.0224303973   0.0162594775  -0.0596520663  -0.0003069092  -0.1929234230   0.0063407306  -0.0664559436  16.0507325669  -0.0299603572  15.4963142354
  22.5139451149
   0.1103870411   0.0224303973   0.0167931392  -0.0608011278  -0.0002549384  -0.1940425835   0.0059792361  -0.0670699892  16.0790686570  -0.0268751291  15.5015637088
  22.5087672022
   0.1345260708   0.0224303973   0.0157263308  -0.0618842464  -0.0002944095  -0.1951034624   0.0053289144  -0.0676399859  16.0933603933  -0.0242471213  15.5006304011
  22.4983660826
   0.1621034798   0.0224303973   0.0143248141  -0.0628625102  -0.0002771402  -0.1960707710   0.0047227879  -0.0681545504  16.0999267021  -0.0220020041  15.4965782502
  22.4859075250
   0.1932919750   0.0224303973   0.0129008798  -0.0637045660  -0.0002533120  -0.1968744590   0.0041888646  -0.0685880447  16.1018901815  -0.0200886474  15.4906729116
  22.4726690690
   0.2281638789   0.0224303973   0.0114630329  -0.0644317933  -0.0002886306  -0.1975862749   0.0036864640  -0.0689658546  16.1023459847  -0.0184649537  15.4850873504
  22.4613727415
   0.2666603307   0.0224303973   0.0101838225  -0.0650693523  -0.0003480597  -0.1982781228   0.0032525710  -0.0693130743  16.1028454477  -0.0171167751  15.4809083584
  22.4532869260
   0.3085651711   0.0224303973   0.0091397083  -0.0656192945  -0.0004094160  -0.1989477823   0.0029029874  -0.0696302074  16.1035413816  -0.0160328568  15.4780367018
  22.4480687809
   0.3534889397   0.0224303973   0.0083558627  -0.0660789247  -0.0004604171  -0.1995774670   0.0026419103  -0.0699125339  16.1043411210  -0.0152019513  15.4762387511
  22.4452318067
   0.4008682421   0.0224303973   0.0078422574  -0.0664416970  -0.0004925124  -0.2001395832   0.0024704395  -0.0701518537  16.1049656305  -0.0146164636  15.4751535215
  22.4441384135
   0.4499841204   0.0224303973   0.0075641235  -0.0667017999  -0.0005138161  -0.2006106872   0.0023758482  -0.0703404902  16.1053046136  -0.0142696077  15.4746271802
  22.4444952841
   0.5000000000   0.0224303973   0.0074955173  -0.0668584881  -0.0005277813  -0.2009841160   0.0023503852  -0.0704763498  16.1055311232  -0.0141531454  15.4747792934
  22.4464277390
   0.5500158796   0.0224303973   0.0076457759  -0.0669147560  -0.0005343040  -0.2012683819   0.0023949176  -0.0705628233  16.1056576459  -0.0142620144  15.4756665905
  22.4499936692
   0.5991317579   0.0224303973   0.0080602633  -0.0668574036  -0.0005196671  -0.2014267809   0.0025260784  -0.0705865990  16.1054359734  -0.0146083448  15.4770712765
  22.4549099586
   0.6465110603   0.0224303973   0.0087753210  -0.0666623300  -0.0004770294  -0.2013965335   0.0027560341  -0.0705253669  16.1046440323  -0.0152031026  15.4788182996
  22.4609304828
   0.6914348289   0.0224303973   0.0097904463  -0.0663169580  -0.0004144179  -0.2011495332   0.0030847192  -0.0703685390  16.1031574360  -0.0160534646  15.4808706210
  22.4679986015
   0.7333396693   0.0224303973   0.0111216936  -0.0658022057  -0.0003363445  -0.2006404413   0.0035185424  -0.0700991606  16.1008372955  -0.0171741192  15.4832010833
  22.4760895168
   0.7718361211   0.0224303973   0.0127854504  -0.0650947653  -0.0002495587  -0.1998121218   0.0040648504  -0.0696960290  16.0975580023  -0.0185801573  15.4858136128
  22.4852236899
   0.8067080250   0.0224303973   0.0147719776  -0.0641683924  -0.0001708714  -0.1985971041   0.0047229842  -0.0691346454  16.0932672214  -0.0202837601  15.4887931749
  22.4955280290
   0.8378965202   0.0224303973   0.0170363242  -0.0629973932  -0.0001295542  -0.1969257886   0.0054817324  -0.0683896383  16.0880382015  -0.0222917325  15.4923467031
  22.5072812929
   0.8654739292   0.0224303973   0.0194871725  -0.0615647593  -0.0001691236  -0.1947476204   0.0063165047  -0.0674429769  16.0820547696  -0.0246023929  15.4967738941
  22.5208644272
   0.8896129589   0.0224303973   0.0219723774  -0.0598726385  -0.0003502982  -0.1920589271   0.0071836721  -0.0662935436  16.0754325223  -0.0272072643  15.5022671238
  22.5364721472
   0.9105557774   0.0224303973   0.0242550156  -0.0579669669  -0.0007589637  -0.1889747500   0.0080126077  -0.0649813903  16.0682102590  -0.0300936662  15.5088974296
  22.5540983172
   0.9285861398   0.0224303973   0.0259801026  -0.0560037928  -0.0015139628  -0.1859163110   0.0086956217  -0.0636509982  16.0588634180  -0.0332232435  15.5151158757
  22.5713399324
   0.9440063142   0.0224303973   0.0263837721  -0.0543426169  -0.0028533569  -0.1838891432   0.0089845518  -0.0626510856  16.0449766378  -0.0364964023  15.5183035708
  22.5840481458
   0.9571193802   0.0224303973   0.0244236947  -0.0537539019  -0.0050736904  -0.1849828387   0.0085291031  -0.0627109631  16.0214065670  -0.0396614886  15.5127329285
  22.5835690343
   0.9682166634   0.0224303973   0.0176046197  -0.0556503474  -0.0091732102  -0.1930789336   0.0064478665  -0.0652049978  15.9724982119  -0.0417721074  15.4845085926
  22.5531013724
   0.9775696027   0.0224303973   0.2556172990  -0.0726175790   0.0542781906  -0.2349480954   0.0879859209  -0.0803147742  15.6162388896  -0.0225383619  15.4485587466
  22.7176725923
   0.9854251662   0.0224303973   0.6982369889  -0.0805099136   0.2253748966  -0.2779504335   0.2660463773  -0.0944958479  16.5752576282  -0.0851935448  16.5522523985
  25.1152275930
   0.9920039252   0.0224303973   0.4204205190  -0.0206926658   0.1334134101  -0.0425648874   0.1765960065  -0.0150526450   2.5509729047  -0.0831642813   1.8902243587
  13.6607760720
   0.9975000000   0.0224303973   0.2903191248  -0.0061768371   0.0686312701  -0.0119259571   0.1068111901  -0.0033143826   2.1422910758  -0.0226579196   1.5466889103
  12.9082549749
   0.0025000000   0.0317833366  -0.2246512242   0.0102057112  -0.0636654540   0.0136284911  -0.0819634718   0.0062391351   1.9003021404  -0.0397373697   1.5114317795
  12.6938319208
   0.0079960748   0.0317833366  -0.3846452583   0.0048110851  -0.1508729282   0.0077053876  -0.1665225531   0.0041926645   2.4232051844  -0.0248387033   1.9904427733
  13.6957598240
   0.0145748338   0.0317833366  -0.6128523117  -0.0184793361  -0.2231233998  -0.0888825380  -0.2390740177  -0.0242786896  16.5242893586  -0.0198405921  16.8538846083
  25.1859757454
   0.0224303973   0.0317833366  -0.2100737358  -0.0188348767  -0.0620804321  -0.0803635033  -0.0730092804  -0.0209941600  15.4007253169  -0.0503865466  15.6053265132
  22.5362209003
   0.0317833366   0.0317833366  -0.0700639981  -0.0117348008  -0.0147175527  -0.0605095927  -0.0181500390  -0.0132617146  15.3990130689  -0.0430121578  15.3996811938
  21.9602303197
   0.0428806198   0.0317833366  -0.0098396653  -0.0056240886   0.0003840160  -0.0473924320   0.0025179290  -0.0080543448  15.5810795857  -0.0311151607  15.4211210844
  21.8670422926
   0.0559936858   0.0317833366   0.0150898082  -0.0019298093   0.0039637801  -0.0405807983   0.0092831307  -0.0053365775  15.7422822452  -0.0222182577  15.4733497347
  21.8774203924
   0.0714138602   0.0317833366   0.0240353027  -0.0002019590   0.0039118608  -0.0376722559   0.0106162128  -0.0041850663  15.8573825665  -0.0168132829  15.5183674293
  21.9030991910