 variables=x,y,I11,I12,I13,I14,I15,I16,I17,I18,I19,CF
  zone i=           39  j=           39
   0.0025000000   0.0025000000  -0.0005242575  -0.0002497836   0.0001428099   0.0005564239  -0.0000340727   0.0000176533   1.2484075157   0.0001757330   1.2452790378
  11.7859315687
   0.0079960748   0.0025000000  -0.0005878325  -0.0002931598   0.0001148591   0.0005582258  -0.0000609483   0.0000022484   1.2483435773   0.0001467010   1.2450822558
  11.7846276002
   0.0145748338   0.0025000000  -0.0006495658  -0.0003300730   0.0000956395   0.0005918663  -0.0000819711  -0.0000010905   1.2483270740   0.0001785305   1.2449045469
  11.7836213710
   0.0224303973   0.0025000000  -0.0007103462  -0.0003628688   0.0000756055   0.0006293722  -0.0001024609  -0.0000014493   1.2483246927   0.0002342284   1.2447254040
  11.7826206698
   0.0317833366   0.0025000000  -0.0007833675  -0.0003988026   0.0000456944   0.0006687518  -0.0001274960  -0.0000014805   1.2483528131   0.0003281985   1.2445447394
  11.7816490620
   0.0428806198   0.0025000000  -0.0008660937  -0.0004376327   0.0000048273   0.0007165759  -0.0001575203  -0.0000009725   1.2483731426   0.0004553250   1.2443085271
  11.7804052455
   0.0559936858   0.0025000000  -0.0009775015  -0.0004839430  -0.0000567824   0.0007728030  -0.0001996481  -0.0000009331   1.2484082349   0.0006375501   1.2440278646
  11.7789722408
   0.0714138602   0.0025000000  -0.0011163459  -0.0005340058  -0.0001403159   0.0008376816  -0.0002542934  -0.0000008875   1.2484265512   0.0008767444   1.2436846762
  11.7772064467
   0.0894442226   0.0025000000  -0.0013042370  -0.0005891866  -0.0002552548   0.0009060262  -0.0003294187  -0.0000016631   1.2484584005   0.0011996701   1.2433194604
  11.7753323266
   0.1103870411   0.0025000000  -0.0015432088  -0.0006422087  -0.0004030732   0.0009735262  -0.0004266086  -0.0000025465   1.2484834428   0.0016058086   1.2429490723
  11.7734114125
   0.1345260708   0.0025000000  -0.0018503923  -0.0006905360  -0.0005916582   0.0010272028  -0.0005518311  -0.0000047705   1.2485485825   0.0021248425   1.2426742652
  11.7720048618
   0.1621034798   0.0025000000  -0.0022199795  -0.0007270787  -0.0008192078   0.0010611921  -0.0007023719  -0.0000073623   1.2486398435   0.0027519852   1.2425233073
  11.7712744404
   0.1932919750   0.0025000000  -0.0026577200  -0.0007481137  -0.0010860416   0.0010690964  -0.0008796993  -0.0000115667   1.2488021953   0.0034969474   1.2425703992
  11.7717852757
   0.2281638789   0.0025000000  -0.0031493399  -0.0007462773  -0.0013839427   0.0010407393  -0.0010791630  -0.0000168349   1.2490107844   0.0043223404   1.2428577496
  11.7736776780
   0.2666603307   0.0025000000  -0.0036794506  -0.0007155701  -0.0017000336   0.0009618597  -0.0012935950  -0.0000238824   1.2493157739   0.0052000239   1.2435118286
  11.7777311787
   0.3085651711   0.0025000000  -0.0042115197  -0.0006530333  -0.0020133114   0.0008303264  -0.0015070792  -0.0000320302   1.2497124324   0.0060751377   1.2445408966
  11.7840010080
   0.3534889397   0.0025000000  -0.0047134996  -0.0005556702  -0.0023047229   0.0006408015  -0.0017090982  -0.0000414909   1.2502216963   0.0068894658   1.2459937569
  11.7928197692
   0.4008682421   0.0025000000  -0.0051335188  -0.0004260807  -0.0025445186   0.0004014345  -0.0018754082  -0.0000518008   1.2508660306   0.0075604601   1.2478751203
  11.8044022974
   0.4499841204   0.0025000000  -0.0054274358  -0.0002703523  -0.0027092528   0.0001192523  -0.0019927727  -0.0000623902   1.2516236241   0.0080184102   1.2501053768
  11.8182048268
   0.5000000000   0.0025000000  -0.0055394868  -0.0000959960  -0.0027725260  -0.0001859647  -0.0020369488  -0.0000727811   1.2524900028   0.0081855319   1.2526167275
  11.8340538276
   0.5500158796   0.0025000000  -0.0054204310   0.0000820367  -0.0027166939  -0.0004902409  -0.0019945296  -0.0000824227   1.2533498270   0.0080176275   1.2551337109
  11.8500274501
   0.5991317579   0.0025000000  -0.0051176716   0.0002469327  -0.0025563795  -0.0007721899  -0.0018775144  -0.0000908633   1.2540945575   0.0075530912   1.2573786828
  11.8640993290
   0.6465110603   0.0025000000  -0.0046878346   0.0003907619  -0.0023162102  -0.0010074821  -0.0017097048  -0.0000972874   1.2547178144   0.0068660957   1.2592772601
  11.8761508224
   0.6914348289   0.0025000000  -0.0041740960   0.0005036514  -0.0020204427  -0.0011913794  -0.0015041802  -0.0001017284   1.2552013293   0.0060270854   1.2607400713
  11.8854448456
   0.7333396693   0.0025000000  -0.0036294100   0.0005813039  -0.0016990251  -0.0013137739  -0.0012854328  -0.0001035810   1.2555722295   0.0051214176   1.2617698453
  11.8922143932
   0.7718361211   0.0025000000  -0.0030870160   0.0006263556  -0.0013727076  -0.0013776442  -0.0010653481  -0.0001033720   1.2558497425   0.0042102615   1.2624051371
  11.8967435602
   0.8067080250   0.0025000000  -0.0025847491   0.0006405278  -0.0010647019  -0.0013881907  -0.0008603740  -0.0001010931   1.2560293583   0.0033525775   1.2626591107
  11.8990310633
   0.8378965202   0.0025000000  -0.0021372525   0.0006298134  -0.0007874668  -0.0013619302  -0.0006775319  -0.0000974603   1.2561698174   0.0025783264   1.2626707869
  11.8999276346
   0.8654739292   0.0025000000  -0.0017613069   0.0006011368  -0.0005520151  -0.0013076552  -0.0005230142  -0.0000926233   1.2562348014   0.0019273102   1.2624681258
  11.8994566867
   0.8896129589   0.0025000000  -0.0014495419   0.0005596861  -0.0003564440  -0.0012335494  -0.0003945922  -0.0000869765   1.2562810482   0.0013885052   1.2621459830
  11.8983274038
   0.9105557774   0.0025000000  -0.0012072714   0.0005121639  -0.0002030458  -0.0011450250  -0.0002946916  -0.0000807122   1.2562905640   0.0009665959   1.2617253838
  11.8966482376
   0.9285861398   0.0025000000  -0.0010174704   0.0004615232  -0.0000841695  -0.0010574617  -0.0002176362  -0.0000749599   1.2563099612   0.0006324742   1.2613139161
  11.8949964581
   0.9440063142   0.0025000000  -0.0008780593   0.0004151898   0.0000020064  -0.0009757836  -0.0001618111  -0.0000689299   1.2563187481   0.0003852516   1.2609302516
  11.8934240697
   0.9571193802   0.0025000000  -0.0007671924   0.0003722755   0.0000653065  -0.0009047225  -0.0001190916  -0.0000632502   1.2563466322   0.0001978868   1.2606161294
  11.8921828062
   0.9682166634   0.0025000000  -0.0006852337   0.0003364440   0.0001072636  -0.0008437568  -0.0000886934  -0.0000575806   1.2563630899   0.0000673420   1.2603531377
  11.8911310837
   0.9775696027   0.0025000000  -0.0006135173   0.0003032068   0.0001375907  -0.0007923295  -0.0000636237  -0.0000529483   1.2563882881  -0.0000281400   1.2601485270
  11.8903388655
   0.9854251662   0.0025000000  -0.0005539022   0.0002726834   0.0001576551  -0.0007433833  -0.0000431780  -0.0000492151   1.2563851394  -0.0000848202   1.2599479399
  11.8895100152
   0.9920039252   0.0025000000  -0.0004938081   0.0002376825   0.0001761482  -0.0006984959  -0.0000226761  -0.0000485016   1.2563678726  -0.0001164915   1.2597512390
  11.8886821787
   0.9975000000   0.0025000000  -0.0004304266   0.0001959860   0.0002034826  -0.0006862032   0.0000043304  -0.0000595585   1.2563060931  -0.0000848920   1.2595454664
  11.8876284644
   0.0025000000   0.0079960748  -0.0005304627  -0.0002269542   0.0001840715   0.0006249246  -0.0000203506   0.0000443992   1.2486171066   0.0002164969   1.2453345432
  11.7871688899
   0.0079960748   0.0079960748  -0.0005823090  -0.0002661719   0.0001519412   0.0006150208  -0.0000444336   0.0000261890   1.2485917188   0.0001877480   1.2450997716
  11.7858640882
   0.0145748338   0.0079960748  -0.0006472028  -0.0003061064   0.0001245704   0.0006419146  -0.0000689290   0.0000192100   1.2485929483   0.0002050688   1.2448918650
  11.7847784454
   0.0224303973   0.0079960748  -0.0007183125  -0.0003431093   0.0000977725   0.0006790205  -0.0000944201   0.0000173413   1.2485966330   0.0002469033   1.2446931480
  11.7837207955
   0.0317833366   0.0079960748  -0.0008077078  -0.0003830622   0.0000625252   0.0007209726  -0.0001260731   0.0000167157   1.2486285025   0.0003317700   1.2444967905
  11.7826832552
   0.0428806198   0.0079960748  -0.0009097442  -0.0004234497   0.0000170767   0.0007745471  -0.0001631237   0.0000183796   1.2486580452   0.0004542704   1.2442486581
  11.7814243371
   0.0559936858   0.0079960748  -0.0010449940  -0.0004697266  -0.0000495923   0.0008379374  -0.0002136475   0.0000205011   1.2487099162   0.0006348215   1.2439576749
  11.7800164841
   0.0714138602   0.0079960748  -0.0012129219  -0.0005179456  -0.0001393241   0.0009111379  -0.0002784428   0.0000235836   1.2487521641   0.0008732156   1.2436053462
  11.7783197017
   0.0894442226   0.0079960748  -0.0014381642  -0.0005703560  -0.0002628773   0.0009878266  -0.0003666975   0.0000261223   1.2488138614   0.0011940058   1.2432315205
  11.7765414833
   0.1103870411   0.0079960748  -0.0017227380  -0.0006197546  -0.0004220021   0.0010640950  -0.0004802509   0.0000289561   1.2488700271   0.0015951199   1.2428547826
  11.7747438203
   0.1345260708   0.0079960748  -0.0020883787  -0.0006661481  -0.0006251514   0.0011243164  -0.0006264393   0.0000291941   1.2489598990   0.0021051856   1.2425724467
  11.7734133486
   0.1621034798   0.0079960748  -0.0025293786  -0.0007014701  -0.0008691882   0.0011625939  -0.0008024396   0.0000280932   1.2490676367   0.0027227555   1.2424157542
  11.7727251343
   0.1932919750   0.0079960748  -0.0030518999  -0.0007217706  -0.0011550381   0.0011728494  -0.0010097121   0.0000248628   1.2492391917   0.0034574738   1.2424625241
  11.7732517521
   0.2281638789   0.0079960748  -0.0036355852  -0.0007191199  -0.0014735518   0.0011437820  -0.0012414563   0.0000198014   1.2494485020   0.0042712767   1.2427534120
  11.7751400204
   0.2666603307   0.0079960748  -0.0042631634  -0.0006892991  -0.0018118622   0.0010588366  -0.0014909693   0.0000108524   1.2497380318   0.0051340755   1.2434142725
  11.7790949478
   0.3085651711   0.0079960748  -0.0048917156  -0.0006288532  -0.0021472929   0.0009169015  -0.0017390572  -0.0000005824   1.2501025720   0.0059953500   1.2444564124
  11.7852055380
   0.3534889397   0.0079960748  -0.0054878082  -0.0005348563  -0.0024593759   0.0007124769  -0.0019749056  -0.0000149895   1.2505547263   0.0067941140   1.2459271500
  11.7937586157
   0.4008682421   0.0079960748  -0.0059868952  -0.0004103325  -0.0027167468   0.0004532534  -0.0021690316  -0.0000320078   1.2511209654   0.0074504838   1.2478311260
  11.8050090180
   0.4499841204   0.0079960748  -0.0063377163  -0.0002606144  -0.0028942412   0.0001475622  -0.0023065568  -0.0000506408   1.2517852225   0.0078964326   1.2500902649
  11.8184284776
   0.5000000000   0.0079960748  -0.0064711155  -0.0000960420  -0.0029634207  -0.0001858285  -0.0023586130  -0.0000718965   1.2525418954   0.0080583666   1.2526327176
  11.8338356856
   0.5500158796   0.0079960748  -0.0063334255   0.0000720429  -0.0029032131  -0.0005187780  -0.0023096419  -0.0000926449   1.2532888362   0.0078955272   1.2551805886
  11.8493664782
   0.5991317579   0.0079960748  -0.0059759735   0.0002310010  -0.0027312623  -0.0008247737  -0.0021733816  -0.0001092778   1.2539350820   0.0074427358   1.2574547985
  11.8630587833
   0.6465110603   0.0079960748  -0.0054676921   0.0003697309  -0.0024741167  -0.0010811781  -0.0019782610  -0.0001228459   1.2544715178   0.0067702693   1.2593760494
  11.8747811560
   0.6914348289   0.0079960748  -0.0048599635   0.0004794184  -0.0021578122  -0.0012806048  -0.0017389502  -0.0001325150   1.2548886648   0.0059465053   1.2608558768
  11.8838123270
   0.7333396693   0.0079960748  -0.0042175659   0.0005549779  -0.0018140195  -0.0014140766  -0.0014852430  -0.0001379964   1.2552176035   0.0050544840   1.2618983482
  11.8904437994
   0.7718361211   0.0079960748  -0.0035761197   0.0005992329  -0.0014648982  -0.0014845147  -0.0012293837  -0.0001398988   1.2554708995   0.0041582724   1.2625389174
  11.8948850867
   0.8067080250   0.0079960748  -0.0029809278   0.0006143038  -0.0011355499  -0.0014963241  -0.0009916308  -0.0001375811   1.2556449847   0.0033117462   1.2627946234
  11.8971895099
   0.8378965202   0.0079960748  -0.0024473519   0.0006045693  -0.0008386678  -0.0014675582  -0.0007782864  -0.0001329049   1.2557888938   0.0025473414   1.2628042627
  11.8981278227
   0.8654739292   0.0079960748  -0.0019984962   0.0005773709  -0.0005862346  -0.0014084087  -0.0005976798  -0.0001263948   1.2558668282   0.0019056149   1.2625944997
  11.8977215685
   0.8896129589   0.0079960748  -0.0016273403   0.0005377917  -0.0003757335  -0.0013277405  -0.0004477754  -0.0001184278   1.2559333396   0.0013749196   1.2622627137
  11.8966934327
   0.9105557774   0.0079960748  -0.0013383665   0.0004938260  -0.0002105248  -0.0012300794  -0.0003310474  -0.0001084442   1.2559705226   0.0009578558   1.2618336956
  11.8951579946
   0.9285861398   0.0079960748  -0.0011109016   0.0004460418  -0.0000827706  -0.0011337137  -0.0002406397  -0.0000992632   1.2560169031   0.0006252970   1.2614118838
  11.8936261109
   0.9440063142   0.0079960748  -0.0009418539   0.0004017650   0.0000097625  -0.0010432424  -0.0001744264  -0.0000900526   1.2560472056   0.0003784056   1.2610175587
  11.8921436599
   0.9571193802   0.0079960748  -0.0008067180   0.0003589781   0.0000781160  -0.0009647042  -0.0001231844  -0.0000821923   1.2560887813   0.0001922471   1.2606915661
  11.8909436754
   0.9682166634   0.0079960748  -0.0007049106   0.0003216679   0.0001246487  -0.0008976242  -0.0000855158  -0.0000752857   1.2561109468   0.0000658815   1.2604150848
  11.8898846363
   0.9775696027   0.0079960748  -0.0006160858   0.0002844128   0.0001602952  -0.0008433012  -0.0000535172  -0.0000712307   1.2561360419  -0.0000208368   1.2601933466
  11.8890318087
   0.9854251662   0.0079960748  -0.0005448510   0.0002495520   0.0001873508  -0.0007943694  -0.0000274945  -0.0000689421   1.2561348881  -0.0000633654   1.2599716991
  11.8881481395
   0.9920039252   0.0079960748  -0.0004799711   0.0002110790   0.0002144833  -0.0007560836  -0.0000027948  -0.0000718829   1.2561308136  -0.0000800043   1.2597416926
  11.8872289318
   0.9975000000   0.0079960748  -0.0004268442   0.0001718789   0.0002475240  -0.0007575350   0.0000225556  -0.0000870659   1.2560996660  -0.0000466227   1.2594889300
  11.8861231540
   0.0025000000   0.0145748338  -0.0005641542  -0.0002152857   0.0002177061   0.0006945882  -0.0000182501   0.0000653858   1.2487936928   0.0002019597   1.2453373556
  11.7880721319
   0.0079960748   0.0145748338  -0.0006086833  -0.0002467327   0.0001886406   0.0006875416  -0.0000386014   0.0000504533   1.2487990931   0.0001878906   1.2450858660
  11.7868502722
   0.0145748338   0.0145748338  -0.0006724013  -0.0002839054   0.0001584122   0.0007141887  -0.0000635469   0.0000441292   1.2488249496   0.0002056313   1.2448544822
  11.7857672879
   0.0224303973   0.0145748338  -0.0007472834  -0.0003209986   0.0001262190   0.0007529809  -0.0000918564   0.0000423263   1.2488449666   0.0002420777   1.2446331122
  11.7846618617
   0.0317833366   0.0145748338  -0.0008470613  -0.0003621119   0.0000853052   0.0007996945  -0.0001279198   0.0000426511   1.2488904243   0.0003221900   1.2444156759
  11.7835923419
   0.0428806198   0.0145748338  -0.0009648987  -0.0004029630   0.0000339079   0.0008612986  -0.0001712832   0.0000463599   1.2489331638   0.0004410044   1.2441491008
  11.7823085833
   0.0559936858   0.0145748338  -0.0011213809  -0.0004482547  -0.0000395411   0.0009351178  -0.0002298145   0.0000516254   1.2490034261   0.0006209126   1.2438413449
  11.7809071858
   0.0714138602   0.0145748338  -0.0013164243  -0.0004937173  -0.0001376569   0.0010203900  -0.0003046608   0.0000588784   1.2490687465   0.0008602153   1.2434739862
  11.7792455844
   0.0894442226   0.0145748338  -0.0015768459  -0.0005423867  -0.0002722254   0.0011094260  -0.0004058414   0.0000660588   1.2491573549   0.0011821855   1.2430866909
  11.7775193958
   0.1103870411   0.0145748338  -0.0019052933  -0.0005874271  -0.0004452673   0.0011979617  -0.0005355224   0.0000738127   1.2492407164   0.0015836200   1.2426997761
  11.7757946067
   0.1345260708   0.0145748338  -0.0023253078  -0.0006301690  -0.0006651563   0.0012680514  -0.0007014661   0.0000779019   1.2493521951   0.0020898619   1.2424055707
  11.7745300458
   0.1621034798   0.0145748338  -0.0028312072  -0.0006627901  -0.0009288293   0.0013129025  -0.0009010480   0.0000793253   1.2494758736   0.0027019842   1.2422398243
  11.7738790184
   0.1932919750   0.0145748338  -0.0034312473  -0.0006816844  -0.0012374827   0.0013263789  -0.0011362439   0.0000774321   1.2496551113   0.0034309829   1.2422846938
  11.7744013735
   0.2281638789   0.0145748338  -0.0041025543  -0.0006790306  -0.0015813908   0.0012948035  -0.0013995282   0.0000717668   1.2498620991   0.0042396585   1.2425826478
  11.7762669402
   0.2666603307   0.0145748338  -0.0048222406  -0.0006506350  -0.0019455769   0.0012015577  -0.0016814486   0.0000603842   1.2501307347   0.0050918308   1.2432537777
  11.7801504463
   0.3085651711   0.0145748338  -0.0055441047  -0.0005936028  -0.0023072201   0.0010446957  -0.0019626447   0.0000441748   1.2504571063   0.0059430132   1.2443154403
  11.7860786800
   0.3534889397   0.0145748338  -0.0062261377  -0.0005044712  -0.0026436954   0.0008177656  -0.0022289266   0.0000225639   1.2508583742   0.0067304933   1.2458149730
  11.7944130196
   0.4008682421   0.0145748338  -0.0067994348  -0.0003871785  -0.0029216858   0.0005291691  -0.0024499012  -0.0000041820   1.2513562617   0.0073753381   1.2477553221
  11.8053571609
   0.4499841204   0.0145748338  -0.0072044026  -0.0002469214  -0.0031139182   0.0001887790  -0.0026067951  -0.0000345045   1.2519359395   0.0078110803   1.2500595603
  11.8184702453
   0.5000000000   0.0145748338  -0.0073593276  -0.0000965190  -0.0031896534  -0.0001857209  -0.0026665983  -0.0000709907   1.2525961714   0.0079691980   1.2526526727
  11.8336290718
   0.5500158796   0.0145748338  -0.0072033287   0.0000572624  -0.0031247718  -0.0005604662  -0.0026112948  -0.0001072471   1.2532456932   0.0078106299   1.2552517641
  11.8489259601
   0.5991317579   0.0145748338  -0.0067925374   0.0002068218  -0.0029394863  -0.0009021520  -0.0024565135  -0.0001359085   1.2538000793   0.0073683080   1.2575715464
  11.8623157649
   0.6465110603   0.0145748338  -0.0062109804   0.0003382840  -0.0026625915  -0.0011891450  -0.0022349759  -0.0001596332   1.2542591856   0.0067077576   1.2595291551
  11.8737366482
   0.6914348289   0.0145748338  -0.0055161876   0.0004432238  -0.0023218430  -0.0014125797  -0.0019650124  -0.0001769925   1.2546148478   0.0058946592   1.2610379407
  11.8825584184
   0.7333396693   0.0145748338  -0.0047799183   0.0005155423  -0.0019515190  -0.0015624013  -0.0016778465  -0.0001876169   1.2548961378   0.0050124502   1.2620988634
  11.8890216325
   0.7718361211   0.0145748338  -0.0040449729   0.0005585631  -0.0015757572  -0.0016418091  -0.0013888933  -0.0001922159   1.2551192768   0.0041263193   1.2627487124
  11.8934045399
   0.8067080250   0.0145748338  -0.0033604701   0.0005738233  -0.0012202906  -0.0016562362  -0.0011188488  -0.0001906551   1.2552829639   0.0032843845   1.2630091080
  11.8956985132
   0.8378965202   0.0145748338  -0.0027474678   0.0005655725  -0.0008997003  -0.0016241279  -0.0008767396  -0.0001848184   1.2554269858   0.0025254495   1.2630140094
  11.8966424119
   0.8654739292   0.0145748338  -0.0022324151   0.0005413987  -0.0006267525  -0.0015581097  -0.0006719850  -0.0001755947   1.2555166191   0.0018885831   1.2627927790
  11.8963080691
   0.8896129589   0.0145748338  -0.0018062091   0.0005054653  -0.0003989556  -0.0014673240  -0.0005020650  -0.0001637753   1.2556020630   0.0013598437   1.2624475617
  11.8953700717
   0.9105557774   0.0145748338  -0.0014727021   0.0004660760  -0.0002194371  -0.0013566217  -0.0003688012  -0.0001487032   1.2556633102   0.0009417539   1.2620057727
  11.8939382103
   0.9285861398   0.0145748338  -0.0012095009   0.0004222898  -0.0000804069  -0.0012471344  -0.0002652001  -0.0001346775   1.2557331641   0.0006076014   1.2615679186
  11.8924735370
   0.9440063142   0.0145748338  -0.0010130802   0.0003810076   0.0000205933  -0.0011438914  -0.0001887512  -0.0001210461   1.2557831290   0.0003596024   1.2611562920
  11.8910390985
   0.9571193802   0.0145748338  -0.0008560041   0.0003392867   0.0000958214  -0.0010544554  -0.0001291799  -0.0001099582   1.2558400603   0.0001738297   1.2608115511
  11.8898575257
   0.9682166634   0.0145748338  -0.0007378065   0.0003013939   0.0001483838  -0.0009789296  -0.0000849182  -0.0001010231   1.2558719235   0.0000510420   1.2605146191
  11.8887779010
   0.9775696027   0.0145748338  -0.0006376663   0.0002625652   0.0001899084  -0.0009196616  -0.0000480728  -0.0000961462   1.2559066939  -0.0000305824   1.2602697664
  11.8878983877
   0.9854251662   0.0145748338  -0.0005619904   0.0002271098   0.0002226917  -0.0008689592  -0.0000189271  -0.0000938714   1.2559181312  -0.0000675477   1.2600230954
  11.8869703029
   0.9920039252   0.0145748338  -0.0004972228   0.0001905289   0.0002537729  -0.0008317507   0.0000069529  -0.0000968323   1.2559346311  -0.0000830069   1.2597646525
  11.8860383490
   0.9975000000   0.0145748338  -0.0004514057   0.0001589020   0.0002841930  -0.0008316239   0.0000285918  -0.0001093030   1.2559324579  -0.0000643132   1.2594897222
  11.8850048038
   0.0025000000   0.0224303973  -0.0006038848  -0.0002039291   0.0002470093   0.0007628324  -0.0000192978   0.0000852663   1.2489787038   0.0001629572   1.2453244317
  11.7889623829
   0.0079960748   0.0224303973  -0.0006477151  -0.0002291529   0.0002221621   0.0007665430  -0.0000379751   0.0000752446   1.2490053471   0.0001630183   1.2450684285
  11.7878037563
   0.0145748338   0.0224303973  -0.0007127513  -0.0002614604   0.0001917336   0.0007980924  -0.0000629425   0.0000719152   1.2490557034   0.0001864501   1.2448217336
  11.7867749378
   0.0224303973   0.0224303973  -0.0007908302  -0.0002956023   0.0001563006   0.0008412023  -0.0000929211   0.0000721056   1.2490967418   0.0002237885   1.2445808724
  11.7856700878
   0.0317833366   0.0224303973  -0.0008996528  -0.0003355498   0.0001095384   0.0008930437  -0.0001332742   0.0000738824   1.2491626632   0.0003015640   1.2443412871
  11.7845726910
   0.0428806198   0.0224303973  -0.0010314421  -0.0003746209   0.0000514323   0.0009636089  -0.0001822142   0.0000806252   1.2492256318   0.0004179629   1.2440548656
  11.7832920125
   0.0559936858   0.0224303973  -0.0012093445  -0.0004177203  -0.0000301415   0.0010489820  -0.0002489343   0.0000897520   1.2493186123   0.0005961053   1.2437288238
  11.7819032672
   0.0714138602   0.0224303973  -0.0014314287  -0.0004594922  -0.0001380451   0.0011478393  -0.0003339559   0.0001018653   1.2494090372   0.0008349537   1.2433462223
  11.7802726360
   0.0894442226   0.0224303973  -0.0017269720  -0.0005035717  -0.0002850117   0.0012509101  -0.0004483182   0.0001142596   1.2495272034   0.0011570526   1.2429468359
  11.7786144312
   0.1103870411   0.0224303973  -0.0020981843  -0.0005431709  -0.0004728532   0.0013536518  -0.0005937582   0.0001277043   1.2496400587   0.0015577448   1.2425498644
  11.7769621356
   0.1345260708   0.0224303973  -0.0025709454  -0.0005806152  -0.0007106988   0.0014355481  -0.0007790799   0.0001367542   1.2497798945   0.0020621234   1.2422461618
  11.7757584955
   0.1621034798   0.0224303973  -0.0031413185  -0.0006092620  -0.0009961822   0.0014882325  -0.0010021411   0.0001416345   1.2499215859   0.0026674667   1.2420707566
  11.7751365003
   0.1932919750   0.0224303973  -0.0038189498  -0.0006263081  -0.0013302058   0.0015050314  -0.0012654855   0.0001412307   1.2501112439   0.0033886380   1.2421130096
  11.7756619736
   0.2281638789   0.0224303973  -0.0045772661  -0.0006233445  -0.0017013842   0.0014717911  -0.0015599308   0.0001353890   1.2503179500   0.0041885199   1.2424167322
  11.7774993144
   0.2666603307   0.0224303973  -0.0053907260  -0.0005971836  -0.0020944843   0.0013682302  -0.0018756252   0.0001204151   1.2505702020   0.0050293388   1.2431012141
  11.7813046562
   0.3085651711   0.0224303973  -0.0062075965  -0.0005449927  -0.0024849752   0.0011930838  -0.0021900929   0.0000981797   1.2508592626   0.0058679389   1.2441831345
  11.7870851361
   0.3534889397   0.0224303973  -0.0069797317  -0.0004636446  -0.0028484525   0.0009394048  -0.0024882581   0.0000671573   1.2512020413   0.0066406727   1.2457121073
  11.7951928674
   0.4008682421   0.0224303973  -0.0076265308  -0.0003567529  -0.0031490881   0.0006161919  -0.0027352094   0.0000283266   1.2516199511   0.0072714875   1.2476892528
  11.8058436725
   0.4499841204   0.0224303973  -0.0080792610  -0.0002301013  -0.0033570735   0.0002349295  -0.0029101319  -0.0000166657   1.2521058814   0.0076958823   1.2500375344
  11.8186154339
   0.5000000000   0.0224303973  -0.0082530728  -0.0000964785  -0.0034394786  -0.0001851371  -0.0029768522  -0.0000697780   1.2526537514   0.0078504294   1.2526751226
  11.8334149582
   0.5500158796   0.0224303973  -0.0080803922   0.0000402889  -0.0033699572  -0.0006057184  -0.0029159012  -0.0001227367   1.2531887673   0.0076963419   1.2553185016
  11.8483616815
   0.5991317579   0.0224303973  -0.0076226342   0.0001761902  -0.0031704117  -0.0009895398  -0.0027438546  -0.0001664545   1.2536414590   0.0072659191   1.2576826700
  11.8614058301
   0.6465110603   0.0224303973  -0.0069681652   0.0002970052  -0.0028717448  -0.0013131562  -0.0024967728  -0.0002028956   1.2540100190   0.0066199259   1.2596772710
  11.8725425807
   0.6914348289   0.0224303973  -0.0061831189   0.0003943272  -0.0025041119  -0.0015646375  -0.0021948617  -0.0002301775   1.2542957056   0.0058210362   1.2612150194
  11.8811407303
   0.7333396693   0.0224303973  -0.0053506101   0.0004617612  -0.0021045951  -0.0017339357  -0.0018739669  -0.0002474056   1.2545280089   0.0049512062   1.2622955330
  11.8874715873
   0.7718361211   0.0224303973  -0.0045208283   0.0005028677  -0.0016994000  -0.0018244969  -0.0015509007  -0.0002557037   1.2547240157   0.0040767983   1.2629552782
  11.8917738816
   0.8067080250   0.0224303973  -0.0037478500   0.0005184018  -0.0013155301  -0.0018414362  -0.0012490205  -0.0002546212   1.2548802367   0.0032419223   1.2632205765
  11.8940714978
   0.8378965202   0.0224303973  -0.0030561937   0.0005122180  -0.0009688441  -0.0018058317  -0.0009782435  -0.0002472637   1.2550277999   0.0024897053   1.2632209315
  11.8950513999
   0.8654739292   0.0224303973  -0.0024755587   0.0004923343  -0.0006732250  -0.0017314978  -0.0007493051  -0.0002345642   1.2551318862   0.0018580871   1.2629881023
  11.8947710026
   0.8896129589   0.0224303973  -0.0019949696   0.0004615588  -0.0004265969  -0.0016287433  -0.0005591896  -0.0002178939   1.2552398742   0.0013312569   1.2626296156
  11.8939124373
   0.9105557774   0.0224303973  -0.0016181152   0.0004278301  -0.0002318707  -0.0015029851  -0.0004097925  -0.0001969622   1.2553270831   0.0009128602   1.2621750687
  11.8925703691
   0.9285861398   0.0224303973  -0.0013190756   0.0003889170  -0.0000801672  -0.0013786032  -0.0002926910  -0.0001773954   1.2554228112   0.0005783200   1.2617222684
  11.8911882365
   0.9440063142   0.0224303973  -0.0010949021   0.0003514021   0.0000308976  -0.0012611035  -0.0002056450  -0.0001588695   1.2554942431   0.0003304156   1.2612930305
  11.8898018728
   0.9571193802   0.0224303973  -0.0009155870   0.0003117406   0.0001145493  -0.0011596889  -0.0001375028  -0.0001438884   1.2555703385   0.0001463637   1.2609277111
  11.8886436310
   0.9682166634   0.0224303973  -0.0007825096   0.0002753482   0.0001741125  -0.0010748989  -0.0000872579  -0.0001319701   1.2556189689   0.0000264350   1.2606083428
  11.8875743475
   0.9775696027   0.0224303973  -0.0006726525   0.0002373689   0.0002218344  -0.0010103449  -0.0000457950  -0.0001257278   1.2556713349  -0.0000524855   1.2603388848
  11.8866728056
   0.9854251662   0.0224303973  -0.0005930612   0.0002041900   0.0002585918  -0.0009558298  -0.0000144088  -0.0001219361   1.2557009847  -0.0000894470   1.2600692879
  11.8857437611
   0.9920039252   0.0224303973  -0.0005267858   0.0001721821   0.0002904230  -0.0009143560   0.0000116983  -0.0001221490   1.2557404511  -0.0001104758   1.2597914659
  11.8848704315
   0.9975000000   0.0224303973  -0.0004818361   0.0001466529   0.0003169297  -0.0009043591   0.0000316958  -0.0001301760   1.2557582279  -0.0001063413   1.2595066392
  11.8838939039
   0.0025000000   0.0317833366  -0.0006548364  -0.0001857027   0.0002803666   0.0008471698  -0.0000214427   0.0001097228   1.2492055395   0.0000903145   1.2452806193
  11.7899214418
   0.0079960748   0.0317833366  -0.0007016484  -0.0002064121   0.0002586624   0.0008676022  -0.0000398153   0.0001061614   1.2492483141   0.0000997953   1.2450192985
  11.7888126968
   0.0145748338   0.0317833366  -0.0007716898  -0.0002338878   0.0002285059   0.0009112220  -0.0000659855   0.0001075916   1.2493201389   0.0001293102   1.2447579197
  11.7877990990
   0.0224303973   0.0317833366  -0.0008550433  -0.0002629522   0.0001910536   0.0009645597  -0.0000976568   0.0001122111   1.2493833341   0.0001717172   1.2444967902
  11.7867076107
   0.0317833366   0.0317833366  -0.0009744098  -0.0002985932   0.0001389820   0.0010269733  -0.0001422744   0.0001180869   1.2494738501   0.0002515883   1.2442324740
  11.7855993765
   0.0428806198   0.0317833366  -0.0011214979  -0.0003337300   0.0000727216   0.0011104174  -0.0001978791   0.0001292546   1.2495599517   0.0003678748   1.2439197204
  11.7842873601
   0.0559936858   0.0317833366  -0.0013218660  -0.0003720052  -0.0000187016   0.0012121678  -0.0002733107   0.0001442683   1.2496797658   0.0005468476   1.2435692441
  11.7829045882
   0.0714138602   0.0317833366  -0.0015737094  -0.0004082892  -0.0001390394   0.0013299128  -0.0003698048   0.0001631918   1.2497975310   0.0007870829   1.2431645908
  11.7812956576