 variables=x,y,qx_i,qx_G_i,qy_i,qy_G_i
  zone i=           40  j=           39
        0.0000000000        0.0025000000        0.0417192696        0.0376079956       -0.0021017195       -0.0531155671
        0.0052480374        0.0025000000        0.0379239714        0.0398573647        0.0005814540       -0.0588602770
        0.0112854543        0.0025000000        0.0308429419        0.0455695538        0.0063972847       -0.0691283023
        0.0185026156        0.0025000000        0.0354195460        0.0416037301        0.0098917819       -0.0747489391
        0.0271068670        0.0025000000        0.0478192639        0.0306452165        0.0109330551       -0.0766778876
        0.0373319782        0.0025000000        0.0374186916        0.0430811297        0.0140559719       -0.0804482431
        0.0494371528        0.0025000000        0.0384610128        0.0442027122        0.0166103876       -0.0840964475
        0.0637037730        0.0025000000        0.0292592012        0.0554015321        0.0186835999       -0.0878927471
        0.0804290414        0.0025000000        0.0312176548        0.0548961849        0.0209087676       -0.0922849342
        0.0999156319        0.0025000000        0.0246599721        0.0618314044        0.0219549584       -0.0953745887
        0.1224565559        0.0025000000        0.0288183499        0.0567731034        0.0234233211       -0.0976282644
        0.1483147753        0.0025000000        0.0273456558        0.0564265145        0.0277010308       -0.1005823975
        0.1776977274        0.0025000000        0.0264010129        0.0549537702        0.0354668473       -0.1048676304
        0.2107279269        0.0025000000        0.0207721925        0.0571237134        0.0468500333       -0.1100555798
        0.2474121048        0.0025000000        0.0187693008        0.0542294964        0.0638845727       -0.1168382990
        0.2876127509        0.0025000000        0.0159445227        0.0518259820        0.0878621646       -0.1252682778
        0.3310270554        0.0025000000        0.0138173430        0.0479736623        0.1129017546       -0.1292338387
        0.3771785909        0.0025000000        0.0092436145        0.0466844242        0.1375943514       -0.1279294318
        0.4254261812        0.0025000000        0.0057253368        0.0447778677        0.1642190462       -0.1244105020
        0.4749920602        0.0025000000        0.0016456422        0.0445909309        0.1920549444       -0.1197903345
        0.5250079398        0.0025000000       -0.0013630254        0.0448351392        0.2179610295       -0.1135587590
        0.5745738188        0.0025000000       -0.0004079457        0.0427787885        0.2426300224       -0.1072608345
        0.6228214091        0.0025000000       -0.0047746936        0.0471182843        0.2633603636       -0.1009855582
        0.6689729446        0.0025000000       -0.0023502580        0.0450934293        0.2788009131       -0.0952458721
        0.7123872491        0.0025000000       -0.0055528788        0.0493574819        0.2882128758       -0.0895166916
        0.7525878952        0.0025000000       -0.0087537575        0.0532312189        0.2928985094       -0.0861570331
        0.7892720731        0.0025000000       -0.0102107748        0.0552952071        0.2917716902       -0.0833843792
        0.8223022726        0.0025000000       -0.0080363523        0.0529570453        0.2821204845       -0.0764839734
        0.8516852247        0.0025000000       -0.0109390713        0.0552338125        0.2703830249       -0.0702127520
        0.8775434441        0.0025000000       -0.0128937164        0.0564745019        0.2539485576       -0.0614005203
        0.9000843681        0.0025000000       -0.0218989084        0.0643465691        0.2330010589       -0.0500570500
        0.9195709586        0.0025000000       -0.0187860714        0.0591877535        0.2139842438       -0.0413381955
        0.9362962270        0.0025000000       -0.0213227582        0.0588931660        0.1968887195       -0.0338036573
        0.9505628472        0.0025000000       -0.0161669405        0.0505681223        0.1810032610       -0.0262163823
        0.9626680218        0.0025000000       -0.0210429751        0.0523399498        0.1668486710       -0.0190439004
        0.9728931330        0.0025000000       -0.0160509783        0.0445364368        0.1547961251       -0.0129219032
        0.9814973844        0.0025000000       -0.0339952140        0.0604258464        0.1409664158       -0.0047681202
        0.9887145457        0.0025000000       -0.0520968453        0.0774292037        0.1307928453       -0.0012227325
        0.9947519626        0.0025000000       -0.0727626799        0.0988470018        0.1211923576       -0.0007757754
        1.0000000000        0.0025000000       -0.0800356961        0.1072627454        0.1057884223        0.0090973005
        0.0000000000        0.0079960748        0.0445353740        0.0429397496       -0.0076665529       -0.0446085849
        0.0052480374        0.0079960748        0.0404880725        0.0459345383       -0.0089867566       -0.0468785660
        0.0112854543        0.0079960748        0.0379841703        0.0472105045       -0.0072559526       -0.0542208504
        0.0185026156        0.0079960748        0.0341142416        0.0510187607       -0.0034991182       -0.0609750318
        0.0271068670        0.0079960748        0.0500877462        0.0355986356       -0.0012983281       -0.0645196499
        0.0373319782        0.0079960748        0.0384611514        0.0481550233        0.0001202251       -0.0668095643
        0.0494371528        0.0079960748        0.0396212683        0.0480177114        0.0018479924       -0.0695708847
        0.0637037730        0.0079960748        0.0296786861        0.0586068994        0.0038538655       -0.0730415727
        0.0804290414        0.0079960748        0.0321454401        0.0559041061        0.0063098979       -0.0772545633
        0.0999156319        0.0079960748        0.0243716963        0.0618612022        0.0079996237       -0.0805121124
        0.1224565559        0.0079960748        0.0296861151        0.0527212531        0.0072417429       -0.0802421293
        0.1483147753        0.0079960748        0.0281841339        0.0486818264        0.0069496429       -0.0785830957
        0.1776977274        0.0079960748        0.0282313334        0.0417791462        0.0124935384       -0.0806188996
        0.2107279269        0.0079960748        0.0225076744        0.0391083049        0.0229158862       -0.0847486977
        0.2474121048        0.0079960748        0.0217763769        0.0293254380        0.0344311635       -0.0860483069
        0.2876127509        0.0079960748        0.0191134560        0.0206596717        0.0531064698       -0.0893514136
        0.3310270554        0.0079960748        0.0166320621        0.0110096153        0.0800884770       -0.0955041164
        0.3771785909        0.0079960748        0.0119685190        0.0044189325        0.1103869771       -0.1000703399
        0.4254261812        0.0079960748        0.0087238890       -0.0017706652        0.1408586079       -0.1006583003
        0.4749920602        0.0079960748        0.0045056405       -0.0042346733        0.1640062234       -0.0920258723
        0.5250079398        0.0079960748        0.0012140343       -0.0039506429        0.1798585299       -0.0767652236
        0.5745738188        0.0079960748        0.0022783884       -0.0041508298        0.2001008128       -0.0666601237
        0.6228214091        0.0079960748       -0.0029004308        0.0045679497        0.2258357906       -0.0654984613
        0.6689729446        0.0079960748       -0.0006366494        0.0076371392        0.2484490459       -0.0669415715
        0.7123872491        0.0079960748       -0.0049452825        0.0186804566        0.2635350218       -0.0668445758
        0.7525878952        0.0079960748       -0.0080549192        0.0282394329        0.2677145310       -0.0629911040
        0.7892720731        0.0079960748       -0.0112482999        0.0374057980        0.2639252289       -0.0575082374
        0.8223022726        0.0079960748       -0.0100644869        0.0406708021        0.2575686257       -0.0536864592
        0.8516852247        0.0079960748       -0.0130657906        0.0473429344        0.2455762311       -0.0470569581
        0.8775434441        0.0079960748       -0.0175769517        0.0546670188        0.2269565791       -0.0359619529
        0.9000843681        0.0079960748       -0.0269777851        0.0655741121        0.2074205380       -0.0256134073
        0.9195709586        0.0079960748       -0.0239436274        0.0625071663        0.1912528050       -0.0192063648
        0.9362962270        0.0079960748       -0.0269208088        0.0641908755        0.1775472622       -0.0146205750
        0.9505628472        0.0079960748       -0.0222953575        0.0576309208        0.1645019014       -0.0095924591
        0.9626680218        0.0079960748       -0.0271881141        0.0604667922        0.1526490372       -0.0046208468
        0.9728931330        0.0079960748       -0.0222870103        0.0537789597        0.1412331981        0.0006800618
        0.9814973844        0.0079960748       -0.0450541315        0.0753076723        0.1303720728        0.0053906240
        0.9887145457        0.0079960748       -0.0551316937        0.0848920490        0.1216060144        0.0066251970
        0.9947519626        0.0079960748       -0.0874739856        0.1178427664        0.1106425952        0.0071678434
        1.0000000000        0.0079960748       -0.0962124388        0.1272638773        0.0960745337        0.0155831668
        0.0000000000        0.0145748338        0.0385245522        0.0530414163       -0.0169649391       -0.0355979848
        0.0052480374        0.0145748338        0.0350293167        0.0561665348       -0.0165100345       -0.0393590389
        0.0112854543        0.0145748338        0.0396147728        0.0511766018       -0.0167938687       -0.0445112133
        0.0185026156        0.0145748338        0.0396227280        0.0510671977       -0.0152115395       -0.0494477132
        0.0271068670        0.0145748338        0.0499715183        0.0409321467       -0.0116149768       -0.0546677229
        0.0373319782        0.0145748338        0.0386917607        0.0525403111       -0.0099014456       -0.0572661417
        0.0494371528        0.0145748338        0.0405655868        0.0507199451       -0.0086787548       -0.0593934821
        0.0637037730        0.0145748338        0.0306109134        0.0601360630       -0.0058650366       -0.0633420166
        0.0804290414        0.0145748338        0.0333512101        0.0556672350       -0.0019970302       -0.0684828297
        0.0999156319        0.0145748338        0.0247715761        0.0605708702        0.0014023832       -0.0728351002
        0.1224565559        0.0145748338        0.0279633015        0.0513137173        0.0028878328       -0.0742192775
        0.1483147753        0.0145748338        0.0278383086        0.0431806619        0.0031543508       -0.0728219754
        0.1776977274        0.0145748338        0.0302581328        0.0306215944        0.0071841696       -0.0733054242
        0.2107279269        0.0145748338        0.0245402105        0.0240891176        0.0167300044       -0.0765843774
        0.2474121048        0.0145748338        0.0225798188        0.0115451280        0.0266314833       -0.0763318959
        0.2876127509        0.0145748338        0.0232064747       -0.0044238335        0.0401472469       -0.0745471458
        0.3310270554        0.0145748338        0.0215481140       -0.0187843547        0.0624936742       -0.0762312312
        0.3771785909        0.0145748338        0.0173569550       -0.0296976039        0.0908656928       -0.0791544067
        0.4254261812        0.0145748338        0.0128814115       -0.0380362944        0.1196040286       -0.0783080665
        0.4749920602        0.0145748338        0.0057948991       -0.0394757995        0.1373977856       -0.0650307162
        0.5250079398        0.0145748338        0.0021417705       -0.0390724347        0.1446846553       -0.0422856636
        0.5745738188        0.0145748338        0.0059758989       -0.0406233954        0.1601440245       -0.0280804539
        0.6228214091        0.0145748338        0.0017249056       -0.0298561348        0.1845694020       -0.0257698842
        0.6689729446        0.0145748338        0.0029512221       -0.0222748055        0.2061473442       -0.0263196964
        0.7123872491        0.0145748338       -0.0025421576       -0.0064887287        0.2197595807       -0.0249231891
        0.7525878952        0.0145748338       -0.0094091348        0.0104551644        0.2225068682       -0.0196608062
        0.7892720731        0.0145748338       -0.0121115287        0.0227453104        0.2200464081       -0.0154051473
        0.8223022726        0.0145748338       -0.0108330818        0.0295330564        0.2152136924       -0.0129695410
        0.8516852247        0.0145748338       -0.0182779679        0.0436877421        0.2038989318       -0.0068883827
        0.8775434441        0.0145748338       -0.0231374490        0.0537398883        0.1888092128        0.0009529192
        0.9000843681        0.0145748338       -0.0326193411        0.0667524112        0.1750372850        0.0061064354
        0.9195709586        0.0145748338       -0.0279888759        0.0637991792        0.1639541093        0.0080658746
        0.9362962270        0.0145748338       -0.0320265316        0.0678386607        0.1546425966        0.0087506136
        0.9505628472        0.0145748338       -0.0276049365        0.0625176125        0.1450316277        0.0106810631
        0.9626680218        0.0145748338       -0.0333212596        0.0670523813        0.1349271639        0.0140460646
        0.9728931330        0.0145748338       -0.0309590014        0.0634701006        0.1259235741        0.0168987040
        0.9814973844        0.0145748338       -0.0496348834        0.0812540264        0.1186304969        0.0177102452
        0.9887145457        0.0145748338       -0.0656007906        0.0968394503        0.1092606868        0.0191007929
        0.9947519626        0.0145748338       -0.1047717581        0.1358580801        0.0988992411        0.0191844331
        1.0000000000        0.0145748338       -0.1152161942        0.1462929301        0.0900732831        0.0221756523
        0.0000000000        0.0224303973        0.0458383724        0.0492859206       -0.0205211890       -0.0330996846
        0.0052480374        0.0224303973        0.0416918937        0.0533598498       -0.0178779375       -0.0387606163
        0.0112854543        0.0224303973        0.0357329377        0.0594969375       -0.0163938270       -0.0451703680
        0.0185026156        0.0224303973        0.0418145619        0.0536546819       -0.0160332670       -0.0486154286
        0.0271068670        0.0224303973        0.0547213168        0.0407593502       -0.0138972545       -0.0524374578
        0.0373319782        0.0224303973        0.0390134999        0.0563467857       -0.0107431673       -0.0564457178
        0.0494371528        0.0224303973        0.0418456129        0.0529332328       -0.0085543162       -0.0592134890
        0.0637037730        0.0224303973        0.0330548042        0.0601913736       -0.0062350948       -0.0622392576
        0.0804290414        0.0224303973        0.0354511912        0.0547722348       -0.0028661971       -0.0663667513
        0.0999156319        0.0224303973        0.0262115851        0.0586928171        0.0013849048       -0.0709152657
        0.1224565559        0.0224303973        0.0298663362        0.0469748109        0.0071130733       -0.0758104101
        0.1483147753        0.0224303973        0.0283053817        0.0378689761        0.0120522808       -0.0785535116
        0.1776977274        0.0224303973        0.0318542365        0.0212819995        0.0157273399       -0.0784347406
        0.2107279269        0.0224303973        0.0271699729        0.0104027616        0.0242465818       -0.0805756269
        0.2474121048        0.0224303973        0.0249782188       -0.0057282023        0.0366943290       -0.0830849581
        0.2876127509        0.0224303973        0.0254832283       -0.0252481863        0.0501723969       -0.0816273790
        0.3310270554        0.0224303973        0.0250504982       -0.0442080659        0.0666007718       -0.0779079093
        0.3771785909        0.0224303973        0.0212737046       -0.0587200583        0.0863758160       -0.0729933010
        0.4254261812        0.0224303973        0.0166390828       -0.0695936491        0.1074217736       -0.0652419031
        0.4749920602        0.0224303973        0.0070032004       -0.0704437585        0.1222097579       -0.0497066703
        0.5250079398        0.0224303973        0.0029223705       -0.0698602757        0.1306474326       -0.0287143551
        0.5745738188        0.0224303973        0.0096252560       -0.0726848722        0.1444121259       -0.0135245379
        0.6228214091        0.0224303973        0.0043659564       -0.0585455020        0.1615054676       -0.0046021012
        0.6689729446        0.0224303973        0.0055659820       -0.0481883924        0.1755599421        0.0017714615
        0.7123872491        0.0224303973       -0.0022172833       -0.0271141579        0.1844728423        0.0074458021
        0.7525878952        0.0224303973       -0.0089642578       -0.0070761396        0.1874272187        0.0122177233
        0.7892720731        0.0224303973       -0.0122812467        0.0092174593        0.1872934646        0.0140836991
        0.8223022726        0.0224303973       -0.0133828151        0.0214422579        0.1824017086        0.0165878600
        0.8516852247        0.0224303973       -0.0211574412        0.0385529176        0.1737639818        0.0201864886
        0.8775434441        0.0224303973       -0.0263788433        0.0510747715        0.1652836259        0.0220929398
        0.9000843681        0.0224303973       -0.0358163629        0.0657585478        0.1570398376        0.0225190079
        0.9195709586        0.0224303973       -0.0314227076        0.0644861407        0.1489073317        0.0222708260
        0.9362962270        0.0224303973       -0.0356080970        0.0698387816        0.1402812415        0.0228845293
        0.9505628472        0.0224303973       -0.0332383293        0.0674882531        0.1305571525        0.0253498635
        0.9626680218        0.0224303973       -0.0405433287        0.0742189427        0.1219413930        0.0274857999
        0.9728931330        0.0224303973       -0.0342313250        0.0671069719        0.1157403471        0.0275397177
        0.9814973844        0.0224303973       -0.0576345634        0.0898161640        0.1089562745        0.0277195308
        0.9887145457        0.0224303973       -0.0812259798        0.1126615749        0.1002387615        0.0286069455
        0.9947519626        0.0224303973       -0.1106637339        0.1413294130        0.0929331586        0.0261476153
        1.0000000000        0.0224303973       -0.1216834624        0.1520517912        0.0870695026        0.0265262361
        0.0000000000        0.0317833366        0.0476143092        0.0518636347       -0.0151551619       -0.0408142024
        0.0052480374        0.0317833366        0.0433120985        0.0563052018       -0.0134410191       -0.0449934595
        0.0112854543        0.0317833366        0.0404592580        0.0596128382       -0.0111162836       -0.0514704179
        0.0185026156        0.0317833366        0.0404951866        0.0600201705       -0.0090375369       -0.0560959800
        0.0271068670        0.0317833366        0.0570988924        0.0434486767       -0.0076279553       -0.0586927708
        0.0373319782        0.0317833366        0.0424667502        0.0574607178       -0.0055563156       -0.0613620703
        0.0494371528        0.0317833366        0.0431158285        0.0555112971       -0.0028923273       -0.0642434724
        0.0637037730        0.0317833366        0.0336186109        0.0626101836       -0.0005609272       -0.0666232185
        0.0804290414        0.0317833366        0.0372096089        0.0547763345        0.0018250136       -0.0689852397
        0.0999156319        0.0317833366        0.0284359241        0.0566955922        0.0055943046       -0.0721822421
        0.1224565559        0.0317833366        0.0329512827        0.0423316560        0.0112616225       -0.0761122474
        0.1483147753        0.0317833366        0.0296364213        0.0328590169        0.0177907311       -0.0796830096
        0.1776977274        0.0317833366        0.0327237081        0.0141654787        0.0230537834       -0.0807312643
        0.2107279269        0.0317833366        0.0307432134       -0.0024731031        0.0301423697       -0.0813845788
        0.2474121048        0.0317833366        0.0280895219       -0.0216312936        0.0407395901       -0.0822395666
        0.2876127509        0.0317833366        0.0292146652       -0.0455360980        0.0532179127       -0.0802173483
        0.3310270554        0.0317833366        0.0285298304       -0.0678114522        0.0669885020       -0.0744093820
        0.3771785909        0.0317833366        0.0251019733       -0.0859475459        0.0822466134       -0.0657907728
        0.4254261812        0.0317833366        0.0201577743       -0.0991157658        0.0984008128       -0.0542055761
        0.4749920602        0.0317833366        0.0088253722       -0.0996408684        0.1119544094       -0.0385924471
        0.5250079398        0.0317833366        0.0049174828       -0.0993512811        0.1231832964       -0.0216223139
        0.5745738188        0.0317833366        0.0127947254       -0.1023234865        0.1355734421       -0.0062834714
        0.6228214091        0.0317833366        0.0070729880       -0.0857342834        0.1484461642        0.0058757318
        0.6689729446        0.0317833366        0.0080782463       -0.0723543076        0.1586482371        0.0152900445
        0.7123872491        0.0317833366       -0.0007182318       -0.0470798879        0.1660632048        0.0217552840
        0.7525878952        0.0317833366       -0.0087532078       -0.0226915092        0.1693605981        0.0260054590
        0.7892720731        0.0317833366       -0.0129676597       -0.0025696694        0.1677759746        0.0293602396
        0.8223022726        0.0317833366       -0.0152739656        0.0136991386        0.1621308796        0.0325774935
        0.8516852247        0.0317833366       -0.0240355719        0.0341416988        0.1550023552        0.0350385052
        0.8775434441        0.0317833366       -0.0286508713        0.0478637822        0.1491128881        0.0351705181
        0.9000843681        0.0317833366       -0.0398121620        0.0657271484        0.1425545554        0.0348607588
        0.9195709586        0.0317833366       -0.0351578981        0.0653771234        0.1342897414        0.0356912139
        0.9362962270        0.0317833366       -0.0428970918        0.0753428190        0.1249137237        0.0377809948
        0.9505628472        0.0317833366       -0.0403441779        0.0736806979        0.1160280037        0.0399559577
        0.9626680218        0.0317833366       -0.0449888406        0.0784380708        0.1089972320        0.0408497922
        0.9728931330        0.0317833366       -0.0399340819        0.0730275257        0.1026837684        0.0412726576
        0.9814973844        0.0317833366       -0.0686716897        0.1009796865        0.0962094023        0.0415954607
        0.9887145457        0.0317833366       -0.0884752584        0.1197264031        0.0903450886        0.0400616980
        0.9947519626        0.0317833366       -0.1231396896        0.1532931165        0.0848168968        0.0365835464
        1.0000000000        0.0317833366       -0.1353918044        0.1650258788        0.0788768069        0.0376418139
        0.0000000000        0.0428806198        0.0528469766        0.0524502972       -0.0119163464       -0.0464887606
        0.0052480374        0.0428806198        0.0480718807        0.0573473387       -0.0096573322       -0.0507189625
        0.0112854543        0.0428806198        0.0448559263        0.0609847718       -0.0072671919       -0.0563239221
        0.0185026156        0.0428806198        0.0449974844        0.0611405029       -0.0047134344       -0.0606995981
        0.0271068670        0.0428806198        0.0582120871        0.0477652524       -0.0025355434       -0.0633563736
        0.0373319782        0.0428806198        0.0437067422        0.0612162525       -0.0013021085       -0.0644044332
        0.0494371528        0.0428806198        0.0461829868        0.0565272882        0.0003525459       -0.0656719458
        0.0637037730        0.0428806198        0.0355501724        0.0636537260        0.0025507192       -0.0672512103
        0.0804290414        0.0428806198        0.0387294030        0.0550219312        0.0048181207       -0.0685970140
        0.0999156319        0.0428806198        0.0307505497        0.0547294568        0.0080933012       -0.0702480894
        0.1224565559        0.0428806198        0.0355309344        0.0383291375        0.0128316722       -0.0722939446
        0.1483147753        0.0428806198        0.0330304840        0.0259795563        0.0193299664       -0.0750946316
        0.1776977274        0.0428806198        0.0345781775        0.0063520596        0.0251501712       -0.0762653224
        0.2107279269        0.0428806198        0.0330478403       -0.0136463460        0.0301821213       -0.0745814330
        0.2474121048        0.0428806198        0.0309127730       -0.0365363707        0.0372406721       -0.0719095787
        0.2876127509        0.0428806198        0.0322106368       -0.0643010434        0.0472637753       -0.0681056633
        0.3310270554        0.0428806198        0.0313124927       -0.0899231173        0.0594410747       -0.0616150448
        0.3771785909        0.0428806198        0.0285079078       -0.1117265516        0.0740336941       -0.0533930953
        0.4254261812        0.0428806198        0.0231127776       -0.1264634582        0.0900950018       -0.0432797415
        0.4749920602        0.0428806198        0.0117294185       -0.1277296353        0.1045715534       -0.0302841259
        0.5250079398        0.0428806198        0.0073786002       -0.1272203839        0.1172268440       -0.0162411247
        0.5745738188        0.0428806198        0.0154050942       -0.1299617747        0.1298881540       -0.0027862609
        0.6228214091        0.0428806198        0.0094866884       -0.1115885263        0.1429506913        0.0076636893
        0.6689729446        0.0428806198        0.0094536963       -0.0946332968        0.1535161874        0.0155674356
        0.7123872491        0.0428806198        0.0008521167       -0.0666425783        0.1595670370        0.0225078132
        0.7525878952        0.0428806198       -0.0088021139       -0.0375127110        0.1604582164        0.0285577654
        0.7892720731        0.0428806198       -0.0143188343       -0.0131747761        0.1567297356        0.0339786824
        0.8223022726        0.0428806198       -0.0185075899        0.0075297797        0.1500097308        0.0384362226
        0.8516852247        0.0428806198       -0.0259340382        0.0285860086        0.1440014073        0.0402842176
        0.8775434441        0.0428806198       -0.0309007692        0.0441722226        0.1393421344        0.0401587701
        0.9000843681        0.0428806198       -0.0434124283        0.0647128630        0.1321956858        0.0415801577
        0.9195709586        0.0428806198       -0.0413477793        0.0682055214        0.1229416260        0.0444440521
        0.9362962270        0.0428806198       -0.0488719565        0.0791637682        0.1141195262        0.0467936702
        0.9505628472        0.0428806198       -0.0453558750        0.0775436610        0.1067651466        0.0480975079
        0.9626680218        0.0428806198       -0.0521374906        0.0851897747        0.0998878965        0.0494303743
        0.9728931330        0.0428806198       -0.0480837595        0.0811182125        0.0932107963        0.0509780418
        0.9814973844        0.0428806198       -0.0748507571        0.1072485803        0.0879393715        0.0507576019
        0.9887145457        0.0428806198       -0.0971271017        0.1285356730        0.0833650303        0.0486073068
        0.9947519626        0.0428806198       -0.1327696070        0.1630326584        0.0783831606        0.0455533386
        1.0000000000        0.0428806198       -0.1459792373        0.1757110536        0.0731575615        0.0464264024
        0.0000000000        0.0559936858        0.0585566093        0.0538079669       -0.0113488372       -0.0497907798
        0.0052480374        0.0559936858        0.0532592506        0.0591508968       -0.0089895646       -0.0535616155
        0.0112854543        0.0559936858        0.0497409400        0.0628945831       -0.0066418870       -0.0580389320
        0.0185026156        0.0559936858        0.0484631399        0.0641507930       -0.0046295631       -0.0608602847
        0.0271068670        0.0559936858        0.0616816445        0.0503133424       -0.0022112275       -0.0628430496
        0.0373319782        0.0559936858        0.0439861672        0.0664102425        0.0001437615       -0.0640082085
        0.0494371528        0.0559936858        0.0479399007        0.0594523745        0.0018706386       -0.0642919619