 variables=x,y,qx_i,qx_G_i,qy_i,qy_G_i
  zone i=           40  j=           39
        0.0000000000       -0.5000206503        0.0000000000        0.0000000000        0.0000000000        0.0000000000
       -0.0402331559       -0.4967717743        0.0000000000        0.0000000000        0.0000000000        0.0000000000
       -0.0802056785       -0.4903054448        0.0000000000        0.0000000000        0.0000000000        0.0000000000
       -0.1196582800       -0.4806606876        0.0000000000        0.0000000000        0.0000000000        0.0000000000
       -0.1583348971       -0.4678987487        0.0000000000        0.0000000000        0.0000000000        0.0000000000
       -0.1959846254       -0.4521024080        0.0000000000        0.0000000000        0.0000000000        0.0000000000
       -0.2323632931       -0.4333740720        0.0000000000        0.0000000000        0.0000000000        0.0000000000
       -0.2672349701       -0.4118351980        0.0000000000        0.0000000000        0.0000000000        0.0000000000
       -0.3003735052       -0.3876254738        0.0000000000        0.0000000000        0.0000000000        0.0000000000
       -0.3315639887       -0.3609019082        0.0000000000        0.0000000000        0.0000000000        0.0000000000
       -0.3606041452       -0.3318378122        0.0000000000        0.0000000000        0.0000000000        0.0000000000
       -0.3873056453       -0.3006216749        0.0000000000        0.0000000000        0.0000000000        0.0000000000
       -0.4114953266       -0.2674559410        0.0000000000        0.0000000000        0.0000000000        0.0000000000
       -0.4330163162       -0.2325556975        0.0000000000        0.0000000000        0.0000000000        0.0000000000
       -0.4517290480       -0.1961472793        0.0000000000        0.0000000000        0.0000000000        0.0000000000
       -0.4675121675       -0.1584668015        0.0000000000        0.0000000000        0.0000000000        0.0000000000
       -0.4802633189       -0.1197586281        0.0000000000        0.0000000000        0.0000000000        0.0000000000
       -0.4898998086       -0.0802737880        0.0000000000        0.0000000000        0.0000000000        0.0000000000
       -0.4963591420       -0.0402683464        0.0000000000        0.0000000000        0.0000000000        0.0000000000
       -0.4995984848       -0.0000017897        0.0000000000        0.0000000000        0.0000000000        0.0000000000
       -0.4995949852        0.0402645162        0.0000000000        0.0000000000        0.0000000000        0.0000000000
       -0.4963520133        0.0802702802        0.0000000000        0.0000000000        0.0000000000        0.0000000000
       -0.4898984715        0.1197578364        0.0000000000        0.0000000000        0.0000000000        0.0000000000
       -0.4802738844        0.1584691588        0.0000000000        0.0000000000        0.0000000000        0.0000000000
       -0.4675259277        0.1961468046        0.0000000000        0.0000000000        0.0000000000        0.0000000000
       -0.4517317503        0.2325474207        0.0000000000        0.0000000000        0.0000000000        0.0000000000
       -0.4330069838        0.2674438501        0.0000000000        0.0000000000        0.0000000000        0.0000000000
       -0.4114843037        0.3006127465        0.0000000000        0.0000000000        0.0000000000        0.0000000000
       -0.3872981762        0.3318308941        0.0000000000        0.0000000000        0.0000000000        0.0000000000
       -0.3605968459        0.3608924117        0.0000000000        0.0000000000        0.0000000000        0.0000000000
       -0.3315559230        0.3876177108        0.0000000000        0.0000000000        0.0000000000        0.0000000000
       -0.3003695551        0.4118372432        0.0000000000        0.0000000000        0.0000000000        0.0000000000
       -0.2672368514        0.4333824625        0.0000000000        0.0000000000        0.0000000000        0.0000000000
       -0.2323658940        0.4521041243        0.0000000000        0.0000000000        0.0000000000        0.0000000000
       -0.1959838019        0.4678923479        0.0000000000        0.0000000000        0.0000000000        0.0000000000
       -0.1583326623        0.4806583835        0.0000000000        0.0000000000        0.0000000000        0.0000000000
       -0.1196577845        0.4903129996        0.0000000000        0.0000000000        0.0000000000        0.0000000000
       -0.0802065881        0.4967779695        0.0000000000        0.0000000000        0.0000000000        0.0000000000
       -0.0402337826        0.5000172705        0.0000000000        0.0000000000        0.0000000000        0.0000000000
        0.0000000000        0.5016422115        0.0000000000        0.0000000000        0.0000000000        0.0000000000
        0.0000000000       -0.5018149823        0.0000000000        0.0000000000        0.0000000000        0.0000000000
       -0.0403738690       -0.4985413791        0.0000000000        0.0000000000        0.0000000000        0.0000000000
       -0.0804868245       -0.4920481007        0.0000000000        0.0000000000        0.0000000000        0.0000000000
       -0.1200785560       -0.4823680652        0.0000000000        0.0000000000        0.0000000000        0.0000000000
       -0.1588916682       -0.4695599334        0.0000000000        0.0000000000        0.0000000000        0.0000000000
       -0.1966742142       -0.4537068154        0.0000000000        0.0000000000        0.0000000000        0.0000000000
       -0.2331811612       -0.4349114035        0.0000000000        0.0000000000        0.0000000000        0.0000000000
       -0.2681757435       -0.4132955839        0.0000000000        0.0000000000        0.0000000000        0.0000000000
       -0.3014310216       -0.3889995447        0.0000000000        0.0000000000        0.0000000000        0.0000000000
       -0.3327313404       -0.3621808547        0.0000000000        0.0000000000        0.0000000000        0.0000000000
       -0.3618737251       -0.3330134406        0.0000000000        0.0000000000        0.0000000000        0.0000000000
       -0.3886691970       -0.3016864573        0.0000000000        0.0000000000        0.0000000000        0.0000000000
       -0.4129439976       -0.2684030615        0.0000000000        0.0000000000        0.0000000000        0.0000000000
       -0.4345407148       -0.2333790937        0.0000000000        0.0000000000        0.0000000000        0.0000000000
       -0.4533193021       -0.1968416792        0.0000000000        0.0000000000        0.0000000000        0.0000000000
       -0.4691579873       -0.1590277557        0.0000000000        0.0000000000        0.0000000000        0.0000000000
       -0.4819540609       -0.1201825373        0.0000000000        0.0000000000        0.0000000000        0.0000000000
       -0.4916245433       -0.0805579254        0.0000000000        0.0000000000        0.0000000000        0.0000000000
       -0.4981067222       -0.0404108751        0.0000000000        0.0000000000        0.0000000000        0.0000000000
       -0.5013575712       -0.0000017773        0.0000000000        0.0000000000        0.0000000000        0.0000000000
       -0.5013540738        0.0404070698        0.0000000000        0.0000000000        0.0000000000        0.0000000000
       -0.4980995986        0.0805544425        0.0000000000        0.0000000000        0.0000000000        0.0000000000
       -0.4916232094        0.1201817694        0.0000000000        0.0000000000        0.0000000000        0.0000000000
       -0.4819646249        0.1590301355        0.0000000000        0.0000000000        0.0000000000        0.0000000000
       -0.4691717452        0.1968412285        0.0000000000        0.0000000000        0.0000000000        0.0000000000
       -0.4533220084        0.2333708449        0.0000000000        0.0000000000        0.0000000000        0.0000000000
       -0.4345313928        0.2683910008        0.0000000000        0.0000000000        0.0000000000        0.0000000000
       -0.4129329867        0.3016775580        0.0000000000        0.0000000000        0.0000000000        0.0000000000
       -0.3886617387        0.3330065510        0.0000000000        0.0000000000        0.0000000000        0.0000000000
       -0.3618664370        0.3621713885        0.0000000000        0.0000000000        0.0000000000        0.0000000000
       -0.3327232865        0.3889918114        0.0000000000        0.0000000000        0.0000000000        0.0000000000
       -0.3014270814        0.4132976546        0.0000000000        0.0000000000        0.0000000000        0.0000000000
       -0.2681776317        0.4349198167        0.0000000000        0.0000000000        0.0000000000        0.0000000000
       -0.2331837683        0.4537085578        0.0000000000        0.0000000000        0.0000000000        0.0000000000
       -0.1966733980        0.4695535626        0.0000000000        0.0000000000        0.0000000000        0.0000000000
       -0.1588894405        0.4823657890        0.0000000000        0.0000000000        0.0000000000        0.0000000000
       -0.1200780655        0.4920556783        0.0000000000        0.0000000000        0.0000000000        0.0000000000
       -0.0804877371        0.4985475971        0.0000000000        0.0000000000        0.0000000000        0.0000000000
       -0.0403744972        0.5018116286        0.0000000000        0.0000000000        0.0000000000        0.0000000000
        0.0000000000        0.5034618301        0.0000000000        0.0000000000        0.0000000000        0.0000000000
        0.0000000000       -0.5039025548        0.0000000000        0.0000000000        0.0000000000        0.0000000000
       -0.0405375783       -0.5006001832        0.0000000000        0.0000000000        0.0000000000        0.0000000000
       -0.0808139171       -0.4940755514        0.0000000000        0.0000000000        0.0000000000        0.0000000000
       -0.1205675162       -0.4843544720        0.0000000000        0.0000000000        0.0000000000        0.0000000000
       -0.1595394307       -0.4714925978        0.0000000000        0.0000000000        0.0000000000        0.0000000000
       -0.1974765005       -0.4555734235        0.0000000000        0.0000000000        0.0000000000        0.0000000000
       -0.2341326911       -0.4366999734        0.0000000000        0.0000000000        0.0000000000        0.0000000000
       -0.2692702649       -0.4149946330        0.0000000000        0.0000000000        0.0000000000        0.0000000000
       -0.3026613653       -0.3905981724        0.0000000000        0.0000000000        0.0000000000        0.0000000000
       -0.3340894696       -0.3636688122        0.0000000000        0.0000000000        0.0000000000        0.0000000000
       -0.3633507896       -0.3343811947        0.0000000000        0.0000000000        0.0000000000        0.0000000000
       -0.3902555911       -0.3029252500        0.0000000000        0.0000000000        0.0000000000        0.0000000000
       -0.4146294222       -0.2695049630        0.0000000000        0.0000000000        0.0000000000        0.0000000000
       -0.4363142431       -0.2343370509        0.0000000000        0.0000000000        0.0000000000        0.0000000000
       -0.4551694489       -0.1976495584        0.0000000000        0.0000000000        0.0000000000        0.0000000000
       -0.4710727809       -0.1596803802        0.0000000000        0.0000000000        0.0000000000        0.0000000000
       -0.4839211188       -0.1206757198        0.0000000000        0.0000000000        0.0000000000        0.0000000000
       -0.4936311496       -0.0808884933        0.0000000000        0.0000000000        0.0000000000        0.0000000000
       -0.5001399078       -0.0405766911        0.0000000000        0.0000000000        0.0000000000        0.0000000000
       -0.5034041438       -0.0000017569        0.0000000000        0.0000000000        0.0000000000        0.0000000000
       -0.5034006493        0.0405729268        0.0000000000        0.0000000000        0.0000000000        0.0000000000
       -0.5001327909        0.0808850514        0.0000000000        0.0000000000        0.0000000000        0.0000000000
       -0.4936298209        0.1206749915        0.0000000000        0.0000000000        0.0000000000        0.0000000000
       -0.4839316831        0.1596827983        0.0000000000        0.0000000000        0.0000000000        0.0000000000
       -0.4710865389        0.1976491479        0.0000000000        0.0000000000        0.0000000000        0.0000000000
       -0.4551721628        0.2343288471        0.0000000000        0.0000000000        0.0000000000        0.0000000000
       -0.4363049366        0.2694929500        0.0000000000        0.0000000000        0.0000000000        0.0000000000
       -0.4146184288        0.3029163973        0.0000000000        0.0000000000        0.0000000000        0.0000000000
       -0.3902481493        0.3343743513        0.0000000000        0.0000000000        0.0000000000        0.0000000000
       -0.3633435186        0.3636593941        0.0000000000        0.0000000000        0.0000000000        0.0000000000
       -0.3340814335        0.3905904870        0.0000000000        0.0000000000        0.0000000000        0.0000000000
       -0.3026574407        0.4149967466        0.0000000000        0.0000000000        0.0000000000        0.0000000000
       -0.2692721652        0.4367084264        0.0000000000        0.0000000000        0.0000000000        0.0000000000
       -0.2341353092        0.4555752095        0.0000000000        0.0000000000        0.0000000000        0.0000000000
       -0.1974756960        0.4714862751        0.0000000000        0.0000000000        0.0000000000        0.0000000000
       -0.1595372139        0.4843522411        0.0000000000        0.0000000000        0.0000000000        0.0000000000
       -0.1205670339        0.4940831684        0.0000000000        0.0000000000        0.0000000000        0.0000000000
       -0.0808148348        0.5006064400        0.0000000000        0.0000000000        0.0000000000        0.0000000000
       -0.0405382090        0.5038992436        0.0000000000        0.0000000000        0.0000000000        0.0000000000
        0.0000000000        0.5055788335        0.0000000000        0.0000000000        0.0000000000        0.0000000000
        0.0000000000       -0.5063477651        0.0000000000        0.0000000000        0.0000000000        0.0000000000
       -0.0407293339       -0.5030116960        0.0000000000        0.0000000000        0.0000000000        0.0000000000
       -0.0811970466       -0.4964503393        0.0000000000        0.0000000000        0.0000000000        0.0000000000
       -0.1211402443       -0.4866811840        0.0000000000        0.0000000000        0.0000000000        0.0000000000
       -0.1602981667       -0.4737563601        0.0000000000        0.0000000000        0.0000000000        0.0000000000
       -0.1984162333       -0.4577598125        0.0000000000        0.0000000000        0.0000000000        0.0000000000
       -0.2352472360       -0.4387949546        0.0000000000        0.0000000000        0.0000000000        0.0000000000
       -0.2705522987       -0.4169847567        0.0000000000        0.0000000000        0.0000000000        0.0000000000
       -0.3041024904       -0.3924706705        0.0000000000        0.0000000000        0.0000000000        0.0000000000
       -0.3356802727       -0.3654116799        0.0000000000        0.0000000000        0.0000000000        0.0000000000
       -0.3650809042       -0.3359832658        0.0000000000        0.0000000000        0.0000000000        0.0000000000
       -0.3921137658       -0.3043762659        0.0000000000        0.0000000000        0.0000000000        0.0000000000
       -0.4166035937       -0.2707956354        0.0000000000        0.0000000000        0.0000000000        0.0000000000
       -0.4383916126       -0.2354591182        0.0000000000        0.0000000000        0.0000000000        0.0000000000
       -0.4573365636       -0.1985958362        0.0000000000        0.0000000000        0.0000000000        0.0000000000
       -0.4733156182       -0.1604448052        0.0000000000        0.0000000000        0.0000000000        0.0000000000
       -0.4862251746       -0.1212533869        0.0000000000        0.0000000000        0.0000000000        0.0000000000
       -0.4959815295       -0.0812756866        0.0000000000        0.0000000000        0.0000000000        0.0000000000
       -0.5025214211       -0.0407709070        0.0000000000        0.0000000000        0.0000000000        0.0000000000
       -0.5058013380       -0.0000017251        0.0000000000        0.0000000000        0.0000000000        0.0000000000
       -0.5057978473        0.0407672067        0.0000000000        0.0000000000        0.0000000000        0.0000000000
       -0.5025143133        0.0812723086        0.0000000000        0.0000000000        0.0000000000        0.0000000000
       -0.4959802089        0.1212527212        0.0000000000        0.0000000000        0.0000000000        0.0000000000
       -0.4862357418        0.1604472844        0.0000000000        0.0000000000        0.0000000000        0.0000000000
       -0.4733293795        0.1985954894        0.0000000000        0.0000000000        0.0000000000        0.0000000000
       -0.4573392902        0.2354509839        0.0000000000        0.0000000000        0.0000000000        0.0000000000
       -0.4383823288        0.2707836952        0.0000000000        0.0000000000        0.0000000000        0.0000000000
       -0.4165926258        0.3043674849        0.0000000000        0.0000000000        0.0000000000        0.0000000000
       -0.3921063486        0.3359764937        0.0000000000        0.0000000000        0.0000000000        0.0000000000
       -0.3650736586        0.3654023358        0.0000000000        0.0000000000        0.0000000000        0.0000000000
       -0.3356722631        0.3924630589        0.0000000000        0.0000000000        0.0000000000        0.0000000000
       -0.3040985895        0.4169869385        0.0000000000        0.0000000000        0.0000000000        0.0000000000
       -0.2705542184        0.4388034722        0.0000000000        0.0000000000        0.0000000000        0.0000000000
       -0.2352498719        0.4577616677        0.0000000000        0.0000000000        0.0000000000        0.0000000000
       -0.1984154471        0.4737501115        0.0000000000        0.0000000000        0.0000000000        0.0000000000
       -0.1602959668        0.4866790239        0.0000000000        0.0000000000        0.0000000000        0.0000000000
       -0.1211397747        0.4964580195        0.0000000000        0.0000000000        0.0000000000        0.0000000000
       -0.0811979726        0.5030180153        0.0000000000        0.0000000000        0.0000000000        0.0000000000
       -0.0407299689        0.5063445198        0.0000000000        0.0000000000        0.0000000000        0.0000000000
        0.0000000000        0.5080585329        0.0000000000        0.0000000000        0.0000000000        0.0000000000
        0.0000000000       -0.5091972350        0.0000000000        0.0000000000        0.0000000000        0.0000000000
       -0.0409527920       -0.5058218969        0.0000000000        0.0000000000        0.0000000000        0.0000000000
       -0.0816435180       -0.4992177430        0.0000000000        0.0000000000        0.0000000000        0.0000000000
       -0.1218076602       -0.4893925632        0.0000000000        0.0000000000        0.0000000000        0.0000000000
       -0.1611823432       -0.4763943821        0.0000000000        0.0000000000        0.0000000000        0.0000000000
       -0.1995113305       -0.4603076690        0.0000000000        0.0000000000        0.0000000000        0.0000000000
       -0.2365460468       -0.4412362907        0.0000000000        0.0000000000        0.0000000000        0.0000000000
       -0.2720462893       -0.4193038991        0.0000000000        0.0000000000        0.0000000000        0.0000000000
       -0.3057818750       -0.3946527402        0.0000000000        0.0000000000        0.0000000000        0.0000000000
       -0.3375340816       -0.3674426873        0.0000000000        0.0000000000        0.0000000000        0.0000000000
       -0.3670970573       -0.3378501987        0.0000000000        0.0000000000        0.0000000000        0.0000000000
       -0.3942791515       -0.3060671696        0.0000000000        0.0000000000        0.0000000000        0.0000000000
       -0.4189041541       -0.2722996860        0.0000000000        0.0000000000        0.0000000000        0.0000000000
       -0.4408124332       -0.2367666883        0.0000000000        0.0000000000        0.0000000000        0.0000000000
       -0.4598619673       -0.1996985534        0.0000000000        0.0000000000        0.0000000000        0.0000000000
       -0.4759292641       -0.1613356036        0.0000000000        0.0000000000        0.0000000000        0.0000000000
       -0.4889101608       -0.1219265506        0.0000000000        0.0000000000        0.0000000000        0.0000000000
       -0.4987204991       -0.0817268853        0.0000000000        0.0000000000        0.0000000000        0.0000000000
       -0.5052966719       -0.0409972233        0.0000000000        0.0000000000        0.0000000000        0.0000000000
       -0.5085948626       -0.0000016785        0.0000000000        0.0000000000        0.0000000000        0.0000000000
       -0.5085913768        0.0409936165        0.0000000000        0.0000000000        0.0000000000        0.0000000000
       -0.5052895761        0.0817236011        0.0000000000        0.0000000000        0.0000000000        0.0000000000
       -0.4987191902        0.1219259772        0.0000000000        0.0000000000        0.0000000000        0.0000000000
       -0.4889207346        0.1613381735        0.0000000000        0.0000000000        0.0000000000        0.0000000000
       -0.4759430334        0.1996983004        0.0000000000        0.0000000000        0.0000000000        0.0000000000
       -0.4598647136        0.2367586548        0.0000000000        0.0000000000        0.0000000000        0.0000000000
       -0.4408031811        0.2722878507        0.0000000000        0.0000000000        0.0000000000        0.0000000000
       -0.4188932217        0.3060584925        0.0000000000        0.0000000000        0.0000000000        0.0000000000
       -0.3942717692        0.3378435305        0.0000000000        0.0000000000        0.0000000000        0.0000000000
       -0.3670898478        0.3674334504        0.0000000000        0.0000000000        0.0000000000        0.0000000000
       -0.3375261094        0.3946452356        0.0000000000        0.0000000000        0.0000000000        0.0000000000
       -0.3057780084        0.4193061815        0.0000000000        0.0000000000        0.0000000000        0.0000000000
       -0.2720482379        0.4412449049        0.0000000000        0.0000000000        0.0000000000        0.0000000000
       -0.2365487094        0.4603096259        0.0000000000        0.0000000000        0.0000000000        0.0000000000
       -0.1995105710        0.4763882411        0.0000000000        0.0000000000        0.0000000000        0.0000000000
       -0.1611801675        0.4893905067        0.0000000000        0.0000000000        0.0000000000        0.0000000000
       -0.1218072092        0.4992255176        0.0000000000        0.0000000000        0.0000000000        0.0000000000
       -0.0816444562        0.5058283088        0.0000000000        0.0000000000        0.0000000000        0.0000000000
       -0.0409534332        0.5091940860        0.0000000000        0.0000000000        0.0000000000        0.0000000000
        0.0000000000        0.5109482130        0.0000000000        0.0000000000        0.0000000000        0.0000000000
        0.0000000000       -0.5125285010        0.0000000000        0.0000000000        0.0000000000        0.0000000000
       -0.0412140330       -0.5091072537        0.0000000000        0.0000000000        0.0000000000        0.0000000000
       -0.0821654803       -0.5024530659        0.0000000000        0.0000000000        0.0000000000        0.0000000000
       -0.1225879252       -0.4925623884        0.0000000000        0.0000000000        0.0000000000        0.0000000000
       -0.1622160194       -0.4794784460        0.0000000000        0.0000000000        0.0000000000        0.0000000000
       -0.2007915910       -0.4632863214        0.0000000000        0.0000000000        0.0000000000        0.0000000000
       -0.2380644659       -0.4440904116        0.0000000000        0.0000000000        0.0000000000        0.0000000000
       -0.2737928902       -0.4220151649        0.0000000000        0.0000000000        0.0000000000        0.0000000000
       -0.3077452175       -0.3972037562        0.0000000000        0.0000000000        0.0000000000        0.0000000000
       -0.3397013414       -0.3698170985        0.0000000000        0.0000000000        0.0000000000        0.0000000000
       -0.3694541114       -0.3400327927        0.0000000000        0.0000000000        0.0000000000        0.0000000000
       -0.3968106718       -0.3080439703        0.0000000000        0.0000000000        0.0000000000        0.0000000000
       -0.4215937056       -0.2740580393        0.0000000000        0.0000000000        0.0000000000        0.0000000000
       -0.4436425796       -0.2382953390        0.0000000000        0.0000000000        0.0000000000        0.0000000000
       -0.4628143807       -0.2009877135        0.0000000000        0.0000000000        0.0000000000        0.0000000000
       -0.4789848409       -0.1623770125        0.0000000000        0.0000000000        0.0000000000        0.0000000000
       -0.4920491410       -0.1227135257        0.0000000000        0.0000000000        0.0000000000        0.0000000000
       -0.5019225913       -0.0822543641        0.0000000000        0.0000000000        0.0000000000        0.0000000000
       -0.5085411804       -0.0412617949        0.0000000000        0.0000000000        0.0000000000        0.0000000000
       -0.5118607354       -0.0000016122        0.0000000000        0.0000000000        0.0000000000        0.0000000000
       -0.5118572559        0.0412583211        0.0000000000        0.0000000000        0.0000000000        0.0000000000
       -0.5085341003        0.0822512130        0.0000000000        0.0000000000        0.0000000000        0.0000000000
       -0.5019212988        0.1227130839        0.0000000000        0.0000000000        0.0000000000        0.0000000000
       -0.4920597265        0.1623797123        0.0000000000        0.0000000000        0.0000000000        0.0000000000
       -0.4789986243        0.2009875944        0.0000000000        0.0000000000        0.0000000000        0.0000000000
       -0.4628171558        0.2382874480        0.0000000000        0.0000000000        0.0000000000        0.0000000000
       -0.4436333711        0.2740463517        0.0000000000        0.0000000000        0.0000000000        0.0000000000
       -0.4215828220        0.3080354400        0.0000000000        0.0000000000        0.0000000000        0.0000000000
       -0.3968033378        0.3400262715        0.0000000000        0.0000000000        0.0000000000        0.0000000000
       -0.3694469522        0.3698080128        0.0000000000        0.0000000000        0.0000000000        0.0000000000
       -0.3396934210        0.3971964030        0.0000000000        0.0000000000        0.0000000000        0.0000000000
       -0.3077413990        0.4220175914        0.0000000000        0.0000000000        0.0000000000        0.0000000000
       -0.2737948805        0.4440991650        0.0000000000        0.0000000000        0.0000000000        0.0000000000
       -0.2380671670        0.4632884238        0.0000000000        0.0000000000        0.0000000000        0.0000000000
       -0.2007908692        0.4794724570        0.0000000000        0.0000000000        0.0000000000        0.0000000000
       -0.1622138777        0.4925604786        0.0000000000        0.0000000000        0.0000000000        0.0000000000
       -0.1225875003        0.5024609761        0.0000000000        0.0000000000        0.0000000000        0.0000000000
       -0.0821664359        0.5091137986        0.0000000000        0.0000000000        0.0000000000        0.0000000000
       -0.0412146833        0.5125254884        0.0000000000        0.0000000000        0.0000000000        0.0000000000
        0.0000000000        0.5143265117        0.0000000000        0.0000000000        0.0000000000        0.0000000000
        0.0000000000       -0.5164286832        0.0000000000        0.0000000000        0.0000000000        0.0000000000
       -0.0415198892       -0.5129536856        0.0000000000        0.0000000000        0.0000000000        0.0000000000
       -0.0827765840       -0.5062409185        0.0000000000        0.0000000000        0.0000000000        0.0000000000
       -0.1235014451       -0.4962735569        0.0000000000        0.0000000000        0.0000000000        0.0000000000
       -0.1634262286       -0.4830892065        0.0000000000        0.0000000000        0.0000000000        0.0000000000
       -0.2022904969       -0.4667736677        0.0000000000        0.0000000000        0.0000000000        0.0000000000
       -0.2398422038       -0.4474319582        0.0000000000        0.0000000000        0.0000000000        0.0000000000