 variables=x,y,qx_j,qx_G_j,qy_j,qy_G_j
  zone i=           39  j=           40
        0.0025000000        0.0000000000        0.0383907925        0.0409364726       -0.0007779480
       -0.0544393386
        0.0079960748        0.0000000000        0.0315395127        0.0446958944        0.0020392350
       -0.0633795944
        0.0145748338        0.0000000000        0.0320647842        0.0445248001        0.0114248586
       -0.0755465344
        0.0224303973        0.0000000000        0.0418422550        0.0356147129        0.0093652889
       -0.0749579275
        0.0317833366        0.0000000000        0.0413742030        0.0380977900        0.0136040063
       -0.0795010327
        0.0428806198        0.0000000000        0.0374289382        0.0440987115        0.0159195366
       -0.0828070525
        0.0559936858        0.0000000000        0.0331054603        0.0506943402        0.0189719651
       -0.0870565691
        0.0714138602        0.0000000000        0.0299633572        0.0555583089        0.0202871549
       -0.0906208454
        0.0894442226        0.0000000000        0.0275492333        0.0591567800        0.0236748434
       -0.0960934860
        0.1103870411        0.0000000000        0.0267100482        0.0595666913        0.0225412704
       -0.0969618883
        0.1345260708        0.0000000000        0.0275909604        0.0573152067        0.0268577964
       -0.1008470652
        0.1621034798        0.0000000000        0.0261397293        0.0564984442        0.0316869570
       -0.1034604214
        0.1932919750        0.0000000000        0.0225112432        0.0575601494        0.0434206013
       -0.1104487030
        0.2281638789        0.0000000000        0.0184857034        0.0572347160        0.0559576511
       -0.1153406425
        0.2666603307        0.0000000000        0.0157126378        0.0545645374        0.0796830165
       -0.1262074777
        0.3085651711        0.0000000000        0.0133100029        0.0519538313        0.1069152096
       -0.1352029748
        0.3534889397        0.0000000000        0.0100461528        0.0482720236        0.1329621711
       -0.1373385742
        0.4008682421        0.0000000000        0.0059889102        0.0475489910        0.1594755267
       -0.1357692845
        0.4499841204        0.0000000000        0.0021840415        0.0452844662        0.1894687439
       -0.1335578978
        0.5000000000        0.0000000000       -0.0012177119        0.0462223505        0.2182791398
       -0.1296607662
        0.5500158796        0.0000000000       -0.0021862150        0.0441258041        0.2438468110
       -0.1236606437
        0.5991317579        0.0000000000       -0.0036631930        0.0464652896        0.2696842920
       -0.1191320836
        0.6465110603        0.0000000000       -0.0044525517        0.0463376366        0.2867341572
       -0.1125367548
        0.6914348289        0.0000000000       -0.0044437990        0.0480450567        0.3013546991
       -0.1084420196
        0.7333396693        0.0000000000       -0.0073716424        0.0513795908        0.3057616146
       -0.1012819258
        0.7718361211        0.0000000000       -0.0093484415        0.0542954158        0.3105544933
       -0.1015512295
        0.8067080250        0.0000000000       -0.0084034519        0.0536253421        0.3028863091
       -0.0951149509
        0.8378965202        0.0000000000       -0.0083394266        0.0529589224        0.2899210088
       -0.0864193448
        0.8654739292        0.0000000000       -0.0101760824        0.0541460688        0.2779875085
       -0.0811486267
        0.8896129589        0.0000000000       -0.0146337253        0.0578253099        0.2552608491
       -0.0670036563
        0.9105557774        0.0000000000       -0.0178950681        0.0595988049        0.2339228248
       -0.0562919999
        0.9285861398        0.0000000000       -0.0172716862        0.0563713137        0.2152908335
       -0.0476295620
        0.9440063142        0.0000000000       -0.0160307564        0.0520719446        0.1980108113
       -0.0395019584
        0.9571193802        0.0000000000       -0.0153335832        0.0480947584        0.1819332188
       -0.0308683143
        0.9682166634        0.0000000000       -0.0156673510        0.0455001252        0.1682945657
       -0.0237499291
        0.9775696027        0.0000000000       -0.0200261405        0.0471642832        0.1566349247
       -0.0174311175
        0.9854251662        0.0000000000       -0.0385487550        0.0642718771        0.1392709777
       -0.0060781938
        0.9920039252        0.0000000000       -0.0573332023        0.0822747970        0.1352894515
       -0.0093420099
        0.9975000000        0.0000000000       -0.0685278395        0.0957548888        0.1191278451
       -0.0042421223
        0.0025000000        0.0052480374        0.0410739633        0.0423272311       -0.0007453409
       -0.0530008713
        0.0079960748        0.0052480374        0.0365949274        0.0442078251        0.0018187602
       -0.0622166936
        0.0145748338        0.0052480374        0.0346058365        0.0461985816        0.0103667554
       -0.0741766426
        0.0224303973        0.0052480374        0.0424773386        0.0388745218        0.0085010781
       -0.0740224982
        0.0317833366        0.0052480374        0.0429770149        0.0398219870        0.0123614654
       -0.0784028558
        0.0428806198        0.0052480374        0.0385363413        0.0457806529        0.0144663261
       -0.0815065461
        0.0559936858        0.0052480374        0.0338680717        0.0521176390        0.0172345757
       -0.0854033078
        0.0714138602        0.0052480374        0.0306615369        0.0562990713        0.0184115121
       -0.0886396344
        0.0894442226        0.0052480374        0.0278309602        0.0593718176        0.0214551944
       -0.0935479041
        0.1103870411        0.0052480374        0.0270518834        0.0584696136        0.0203567181
       -0.0941961274
        0.1345260708        0.0052480374        0.0284591038        0.0540182206        0.0241679855
       -0.0975339060
        0.1621034798        0.0052480374        0.0275267233        0.0506340828        0.0283751793
       -0.0995240783
        0.1932919750        0.0052480374        0.0243198258        0.0488846308        0.0387616728
       -0.1051389181
        0.2281638789        0.0052480374        0.0209226088        0.0453848198        0.0497730870
       -0.1084341998
        0.2666603307        0.0052480374        0.0188427576        0.0389504260        0.0708357117
       -0.1167454687
        0.3085651711        0.0052480374        0.0163367878        0.0334136610        0.0949972546
       -0.1227385546
        0.3534889397        0.0052480374        0.0128539638        0.0268282701        0.1180041816
       -0.1220106051
        0.4008682421        0.0052480374        0.0088849145        0.0237483419        0.1414944143
       -0.1175064341
        0.4499841204        0.0052480374        0.0051312901        0.0196918817        0.1682910882
       -0.1122702167
        0.5000000000        0.0052480374        0.0015005613        0.0201838073        0.1943179047
       -0.1060938152
        0.5500158796        0.0052480374        0.0004257640        0.0186253727        0.2177698977
       -0.0984984104
        0.5991317579        0.0052480374       -0.0014082412        0.0228555060        0.2417764226
       -0.0922380329
        0.6465110603        0.0052480374       -0.0026966972        0.0252605422        0.2579336380
       -0.0847598929
        0.6914348289        0.0052480374       -0.0033059910        0.0304858072        0.2719403172
       -0.0800515469
        0.7333396693        0.0052480374       -0.0067598418        0.0371198028        0.2765729378
       -0.0730750779
        0.7718361211        0.0052480374       -0.0095095068        0.0438115208        0.2814678488
       -0.0735008054
        0.8067080250        0.0052480374       -0.0099367711        0.0468766874        0.2748848822
       -0.0680476231
        0.8378965202        0.0052480374       -0.0104357171        0.0490228090        0.2633758565
       -0.0606944380
        0.8654739292        0.0052480374       -0.0135113954        0.0534961885        0.2527047124
       -0.0566965849
        0.8896129589        0.0052480374       -0.0195106001        0.0601966596        0.2321357133
       -0.0446011773
        0.9105557774        0.0052480374       -0.0230163819        0.0633743101        0.2127826301
       -0.0355660265
        0.9285861398        0.0052480374       -0.0226357222        0.0612430150        0.1958628084
       -0.0283869235
        0.9440063142        0.0052480374       -0.0218741338        0.0581073155        0.1801565233
       -0.0216206587
        0.9571193802        0.0052480374       -0.0214699826        0.0549735460        0.1655347542
       -0.0143742978
        0.9682166634        0.0052480374       -0.0218531888        0.0529252783        0.1531269268
       -0.0084544223
        0.9775696027        0.0052480374       -0.0284612266        0.0573665449        0.1425147661
       -0.0033997888
        0.9854251662        0.0052480374       -0.0459463082        0.0737251631        0.1267082074
        0.0061378076
        0.9920039252        0.0052480374       -0.0656780934        0.0929919522        0.1230755173
        0.0018797919
        0.9975000000        0.0052480374       -0.0839317895        0.1130710334        0.1083642116
        0.0049075001
        0.0025000000        0.0112854543        0.0395551659        0.0499653801       -0.0146627075
       -0.0377563233
        0.0079960748        0.0112854543        0.0383257250        0.0497721912       -0.0192231010
       -0.0400922642
        0.0145748338        0.0112854543        0.0377485636        0.0501395696       -0.0175924985
       -0.0458740213
        0.0224303973        0.0112854543        0.0440215842        0.0439132105       -0.0110149260
       -0.0546519569
        0.0317833366        0.0112854543        0.0438145999        0.0448406522       -0.0111801658
       -0.0552536288
        0.0428806198        0.0112854543        0.0393980574        0.0497949371       -0.0107911659
       -0.0566319659
        0.0559936858        0.0112854543        0.0347169269        0.0550145902       -0.0089089097
       -0.0594630876
        0.0714138602        0.0112854543        0.0315481027        0.0577529422       -0.0067238309
       -0.0632989323
        0.0894442226        0.0112854543        0.0283544805        0.0594124659       -0.0034191850
       -0.0679825772
        0.1103870411        0.0112854543        0.0268488923        0.0569595059       -0.0021462079
       -0.0703972356
        0.1345260708        0.0112854543        0.0283909012        0.0494850876       -0.0084676201
       -0.0633207675
        0.1621034798        0.0112854543        0.0286658376        0.0413431044       -0.0099172800
       -0.0595954099
        0.1932919750        0.0112854543        0.0262248704        0.0346563943       -0.0003086561
       -0.0644252697
        0.2281638789        0.0112854543        0.0228177687        0.0265462738        0.0104651699
       -0.0674184286
        0.2666603307        0.0112854543        0.0216474422        0.0142152770        0.0151666132
       -0.0595309106
        0.3085651711        0.0112854543        0.0200890423        0.0026040074        0.0412379880
       -0.0675185333
        0.3534889397        0.0112854543        0.0168175360       -0.0091051490        0.0748077802
       -0.0776804312
        0.4008682421        0.0112854543        0.0126979631       -0.0163635475        0.1136145424
       -0.0887139681
        0.4499841204        0.0112854543        0.0079508109       -0.0224868857        0.1446538872
       -0.0880581918
        0.5000000000        0.0112854543        0.0034140864       -0.0222879448        0.1544556449
       -0.0667039198
        0.5500158796        0.0112854543        0.0028913891       -0.0236848035        0.1615088813
       -0.0437683083
        0.5991317579        0.0112854543        0.0018120952       -0.0175386187        0.1891138557
       -0.0413501690
        0.6465110603        0.0112854543        0.0002615215       -0.0109987082        0.2224248809
       -0.0510517205
        0.6914348289        0.0112854543       -0.0012080413       -0.0003778656        0.2469250499
       -0.0569630881
        0.7333396693        0.0112854543       -0.0061321562        0.0124223509        0.2622322780
       -0.0606674022
        0.7718361211        0.0112854543       -0.0101331527        0.0250735012        0.2543079115
       -0.0483032983
        0.8067080250        0.0112854543       -0.0110986569        0.0329495883        0.2497322112
       -0.0446785721
        0.8378965202        0.0112854543       -0.0128998475        0.0403552060        0.2460884667
       -0.0450157879
        0.8654739292        0.0112854543       -0.0178587594        0.0500903189        0.2242396126
       -0.0297824693
        0.8896129589        0.0112854543       -0.0247431903        0.0602041371        0.2038368273
       -0.0175372124
        0.9105557774        0.0112854543       -0.0280255298        0.0652939800        0.1858775007
       -0.0092262645
        0.9285861398        0.0112854543       -0.0275830881        0.0646884800        0.1747907143
       -0.0073755264
        0.9440063142        0.0112854543       -0.0273947271        0.0633715309        0.1628232391
       -0.0039185296
        0.9571193802        0.0112854543       -0.0273815605        0.0616529961        0.1522399574
       -0.0005225338
        0.9682166634        0.0112854543       -0.0285936758        0.0613320401        0.1418943508
        0.0033896445
        0.9775696027        0.0112854543       -0.0360822432        0.0673469275        0.1295654898
        0.0098860529
        0.9854251662        0.0112854543       -0.0532794336        0.0838874331        0.1240957063
        0.0085561898
        0.9920039252        0.0112854543       -0.0766415551        0.1070325707        0.1136266094
        0.0103141855
        0.9975000000        0.0112854543       -0.1006916195        0.1317557067        0.0991755784
        0.0127777395
        0.0025000000        0.0185026156        0.0401807052        0.0531644256       -0.0184782221
       -0.0346136766
        0.0079960748        0.0185026156        0.0379864287        0.0549160355       -0.0138168096
       -0.0455989188
        0.0145748338        0.0185026156        0.0393308877        0.0537878978       -0.0170677105
       -0.0463858381
        0.0224303973        0.0185026156        0.0470383440        0.0460020400       -0.0148758766
       -0.0509785232
        0.0317833366        0.0185026156        0.0450240601        0.0483198878       -0.0092207026
       -0.0575423097
        0.0428806198        0.0185026156        0.0401270287        0.0531213808       -0.0087661929
       -0.0588272672
        0.0559936858        0.0185026156        0.0361403217        0.0566756464       -0.0066294821
       -0.0616171000
        0.0714138602        0.0185026156        0.0332171940        0.0579599922       -0.0018322168
       -0.0676026068
        0.0894442226        0.0185026156        0.0296135083        0.0584511766        0.0029877329
       -0.0732657175
        0.1103870411        0.0185026156        0.0273245064        0.0548576572        0.0068267762
       -0.0775118695
        0.1345260708        0.0185026156        0.0284652880        0.0454707143        0.0126745312
       -0.0820182193
        0.1621034798        0.0185026156        0.0296556506        0.0336016755        0.0143142182
       -0.0811393854
        0.1932919750        0.0185026156        0.0283106528        0.0224479843        0.0206511379
       -0.0826546259
        0.2281638789        0.0185026156        0.0247657678        0.0106776578        0.0323250071
       -0.0865049372
        0.2666603307        0.0185026156        0.0240739004       -0.0061423626        0.0440784464
       -0.0859895581
        0.3085651711        0.0185026156        0.0238038899       -0.0227177445        0.0562235968
       -0.0801673661
        0.3534889397        0.0185026156        0.0212543412       -0.0387342950        0.0762527521
       -0.0773536772
        0.4008682421        0.0185026156        0.0169968174       -0.0493038660        0.0998758651
       -0.0736811389
        0.4499841204        0.0185026156        0.0105417238       -0.0563441243        0.1233702108
       -0.0660891043
        0.5000000000        0.0185026156        0.0044655636       -0.0557846215        0.1310633895
       -0.0434743390
        0.5500158796        0.0185026156        0.0051423833       -0.0576918947        0.1360334209
       -0.0192904022
        0.5991317579        0.0185026156        0.0054657863       -0.0506233876        0.1588505470
       -0.0126424071
        0.6465110603        0.0185026156        0.0036358606       -0.0407890341        0.1747795313
       -0.0052847870
        0.6914348289        0.0185026156        0.0010548366       -0.0258476569        0.1897326110
       -0.0020683040
        0.7333396693        0.0185026156       -0.0056389436       -0.0079305638        0.1914656252
        0.0076251038
        0.7718361211        0.0185026156       -0.0106172080        0.0091923474        0.1936457597
        0.0097545153
        0.8067080250        0.0185026156       -0.0121546189        0.0211494738        0.1928923587
        0.0097257908
        0.8378965202        0.0185026156       -0.0156790282        0.0334435907        0.1827692978
        0.0158462727
        0.8654739292        0.0185026156       -0.0220703594        0.0471110475        0.1726607409
        0.0196847080
        0.8896129589        0.0185026156       -0.0291526756        0.0594103550        0.1627003970
        0.0220928517
        0.9105557774        0.0185026156       -0.0321303392        0.0659479147        0.1541771831
        0.0217321340
        0.9285861398        0.0185026156       -0.0316011156        0.0666572765        0.1462957333
        0.0209930913
        0.9440063142        0.0185026156       -0.0322566940        0.0672433468        0.1392652558
        0.0200049006
        0.9571193802        0.0185026156       -0.0334058931        0.0675818402        0.1298615954
        0.0224879550
        0.9682166634        0.0185026156       -0.0349486405        0.0681794290        0.1196592279
        0.0263916432
        0.9775696027        0.0185026156       -0.0421996021        0.0743555596        0.1157631555
        0.0242883163
        0.9854251662        0.0185026156       -0.0626492738        0.0942940599        0.1077634755
        0.0252016001
        0.9920039252        0.0185026156       -0.0890276750        0.1200571436        0.0946779272
        0.0295641839
        0.9975000000        0.0185026156       -0.1128298297        0.1435523621        0.0905556590
        0.0223666780
        0.0025000000        0.0271068670        0.0445142925        0.0527868259       -0.0198073430
       -0.0349877759
        0.0079960748        0.0271068670        0.0401015166        0.0572664088       -0.0188552609
       -0.0414226524
        0.0145748338        0.0271068670        0.0397607431        0.0581733028       -0.0155308169
       -0.0483421663
        0.0224303973        0.0271068670        0.0491743491        0.0488762058       -0.0166389644
       -0.0492702650
        0.0317833366        0.0271068670        0.0476781718        0.0502995094       -0.0142613888
       -0.0524848203
        0.0428806198        0.0271068670        0.0416828439        0.0556272284       -0.0101640997
       -0.0571969621
        0.0559936858        0.0271068670        0.0375390519        0.0585568470       -0.0083832241
       -0.0591593191
        0.0714138602        0.0271068670        0.0349503075        0.0584287660       -0.0074536770
       -0.0606622780
        0.0894442226        0.0271068670        0.0314905706        0.0573397252       -0.0040638434
       -0.0642133761
        0.1103870411        0.0271068670        0.0295110399        0.0516945828        0.0009168290
       -0.0687579078
        0.1345260708        0.0271068670        0.0301088005        0.0408096624        0.0088787768
       -0.0745856597
        0.1621034798        0.0271068670        0.0307318203        0.0270195128        0.0128033850
       -0.0754900113
        0.1932919750        0.0271068670        0.0305298761        0.0117442137        0.0157027421
       -0.0734009973
        0.2281638789        0.0271068670        0.0276853806       -0.0041166255        0.0290253668
       -0.0788983657
        0.2666603307        0.0271068670        0.0269586459       -0.0248191562        0.0418314084
       -0.0798490151
        0.3085651711        0.0271068670        0.0270598170       -0.0452856974        0.0585497104
       -0.0789865214
        0.3534889397        0.0271068670        0.0249410980       -0.0651544070        0.0752615383
       -0.0735527448
        0.4008682421        0.0271068670        0.0207500608       -0.0788286781        0.0946544474
       -0.0665248853
        0.4499841204        0.0271068670        0.0131088165       -0.0869427571        0.1131324486
       -0.0548869036
        0.5000000000        0.0271068670        0.0059171073       -0.0863392210        0.1228767142
       -0.0352572094
        0.5500158796        0.0271068670        0.0075318245       -0.0884814142        0.1335457983
       -0.0176712431
        0.5991317579        0.0271068670        0.0085141397       -0.0801529273        0.1501898998
       -0.0058868964
        0.6465110603        0.0271068670        0.0062561051       -0.0674581586        0.1639029437
        0.0030193153
        0.6914348289        0.0271068670        0.0028212870       -0.0485177052        0.1759697792
        0.0083776471
        0.7333396693        0.0271068670       -0.0050066059       -0.0264265369        0.1826861185
        0.0127035884
        0.7718361211        0.0271068670       -0.0106485842       -0.0054033874        0.1835547949
        0.0160664973
        0.8067080250        0.0271068670       -0.0134289083        0.0108797634        0.1809955431
        0.0178965426
        0.8378965202        0.0271068670       -0.0182084286        0.0272421892        0.1746892756
        0.0201165805
        0.8654739292        0.0271068670       -0.0248921734        0.0433600161        0.1662030246
        0.0229824501
        0.8896129589        0.0271068670       -0.0322994742        0.0577404706        0.1603391407
        0.0221353563
        0.9105557774        0.0271068670       -0.0357212274        0.0661374022        0.1513918684
        0.0231077942
        0.9285861398        0.0271068670       -0.0360387935        0.0689052770        0.1441912614
        0.0224681891
        0.9440063142        0.0271068670       -0.0381213438        0.0719312722        0.1321739088
        0.0270271301
        0.9571193802        0.0271068670       -0.0395298973        0.0733064129        0.1222113227
        0.0304786156
        0.9682166634        0.0271068670       -0.0401667061        0.0735150347        0.1169367131
        0.0296475657
        0.9775696027        0.0271068670       -0.0489837030        0.0816044651        0.1112339561
        0.0294182561
        0.9854251662        0.0271068670       -0.0730422347        0.1049110701        0.1019638386
        0.0318646176
        0.9920039252        0.0271068670       -0.0994392816        0.1302571859        0.0968647723
        0.0285592650
        0.9975000000        0.0271068670       -0.1224442666        0.1524454682        0.0895335171
        0.0255236626
        0.0025000000        0.0373319782        0.0478540059        0.0545336029       -0.0096552987
       -0.0475319370
        0.0079960748        0.0373319782        0.0440387412        0.0586101698       -0.0072979542
       -0.0543255834
        0.0145748338        0.0373319782        0.0427058671        0.0605580162       -0.0046914946
       -0.0598627833
        0.0224303973        0.0373319782        0.0508494639        0.0525399971       -0.0015044004
       -0.0644878712
        0.0317833366        0.0373319782        0.0497498118        0.0533856359       -0.0005661850
       -0.0656541866
        0.0428806198        0.0373319782        0.0439330858        0.0577819292        0.0006738070
       -0.0670783630
        0.0559936858        0.0373319782        0.0392100060        0.0604123795        0.0042981040
       -0.0703487478
        0.0714138602        0.0373319782        0.0364089675        0.0594013399        0.0069820955
       -0.0728160886
        0.0894442226        0.0373319782        0.0334684130        0.0564585571        0.0094513882
       -0.0745565146
        0.1103870411        0.0373319782        0.0320818693        0.0486026835        0.0138195551
       -0.0774571542
        0.1345260708        0.0373319782        0.0326906073        0.0357678504        0.0194308644
       -0.0801061625
        0.1621034798        0.0373319782        0.0325633393        0.0204836815        0.0278653123
       -0.0848469578
        0.1932919750        0.0373319782        0.0327242719        0.0020481312        0.0330772285
       -0.0848882150
        0.2281638789        0.0373319782        0.0306391809       -0.0177399794        0.0403192465
       -0.0841497808
        0.2666603307        0.0373319782        0.0301325266       -0.0421970975        0.0501130987
       -0.0824514476
        0.3085651711        0.0373319782        0.0303031206       -0.0666503890        0.0614262924
       -0.0769292672
        0.3534889397        0.0373319782        0.0283216086       -0.0898665865        0.0726910025
       -0.0667828779
        0.4008682421        0.0373319782        0.0241736239       -0.1066928624        0.0872324714
       -0.0560441566
        0.4499841204        0.0373319782        0.0159048458       -0.1156942794        0.1003111302
       -0.0404889481
        0.5000000000        0.0373319782        0.0082127187       -0.1152389981        0.1133997781
       -0.0255725704
        0.5500158796        0.0373319782        0.0100878245       -0.1173371272        0.1244921281
       -0.0097726340
        0.5991317579        0.0373319782        0.0112422588       -0.1080783978        0.1360454568
        0.0056269128
        0.6465110603        0.0373319782        0.0085164237       -0.0924434180        0.1463506316
        0.0169132754
        0.6914348289        0.0373319782        0.0045676896       -0.0700963570        0.1519186968
        0.0278393006
        0.7333396693        0.0373319782       -0.0041679083       -0.0438920056        0.1578485451
        0.0322867964
        0.7718361211        0.0373319782       -0.0110902781       -0.0186093500        0.1576788901
        0.0365678073
        0.8067080250        0.0373319782       -0.0151764635        0.0018451521        0.1534329832
        0.0401649515
        0.8378965202        0.0373319782       -0.0206891197        0.0214677939        0.1443450043
        0.0452113875
        0.8654739292        0.0373319782       -0.0272210392        0.0392004624        0.1396272027
        0.0451428909
        0.8896129589        0.0373319782       -0.0352744980        0.0557794392        0.1347331803
        0.0442810366
        0.9105557774        0.0373319782       -0.0400579902        0.0667684700        0.1279387495
        0.0442381913
        0.9285861398        0.0373319782       -0.0417708949        0.0721373824        0.1178817114
        0.0473079813
        0.9440063142        0.0373319782       -0.0444898602        0.0768609116        0.1095793680
        0.0488388543
        0.9571193802        0.0373319782       -0.0454687116        0.0786219661        0.1036573136
        0.0487710800
        0.9682166634        0.0373319782       -0.0464801788        0.0798284385        0.0965086635
        0.0502282378
        0.9775696027        0.0373319782       -0.0566777043        0.0894573414        0.0896400059
        0.0517683570
        0.9854251662        0.0373319782       -0.0813506486        0.1132768316        0.0852659573
        0.0498275164
        0.9920039252        0.0373319782       -0.1088019627        0.1395354956        0.0801369188
        0.0471487312
        0.9975000000        0.0373319782       -0.1340187408        0.1637016862        0.0753675762
        0.0426837162
        0.0025000000        0.0494371528        0.0530645987        0.0557663263       -0.0117436132
       -0.0480287488
        0.0079960748        0.0494371528        0.0488310308        0.0601674111       -0.0095694327
       -0.0535856802
        0.0145748338        0.0494371528        0.0469892223        0.0624885570       -0.0071186460
       -0.0579981741
        0.0224303973        0.0494371528        0.0539135003        0.0553606406       -0.0050424971
       -0.0607435630
        0.0317833366        0.0494371528        0.0512100383        0.0574881472       -0.0025678234
       -0.0625923106
        0.0428806198        0.0494371528        0.0455877340        0.0610334848       -0.0023313525
       -0.0620795022
        0.0559936858        0.0494371528        0.0410751499        0.0624061815       -0.0005744387
       -0.0627554298
        0.0714138602        0.0494371528        0.0380500309        0.0603587891        0.0004469464
       -0.0626960290
        0.0894442226        0.0494371528        0.0355029706        0.0556538605        0.0034369698
       -0.0639024491
        0.1103870411        0.0494371528        0.0346265143        0.0456892538        0.0067543449
       -0.0645039116
        0.1345260708        0.0494371528        0.0357326908        0.0304483957        0.0124882949
       -0.0662781130