 variables=x,y,qx_j,qx_G_j,qy_j,qy_G_j
  zone i=           39  j=           40
        0.0025000000        0.0000000000     -169.1886127008      169.1886276083        4.5897737062
       -4.5897587473
        0.0079960748        0.0000000000      122.3460646283     -122.2276889316      385.2452444187
     -385.1165278894
        0.0145748338        0.0000000000      177.8525161660     -177.6700367906      720.6820118390
     -689.5978498437
        0.0224303973        0.0000000000        8.5714296774      -10.7496686549      927.4519467202
     -892.1912498762
        0.0317833366        0.0000000000       14.8587823245      -17.8703106683      994.8756259259
     -957.4269354684
        0.0428806198        0.0000000000       14.4900729847      -17.7243565183     1013.1918543323
     -974.2136690664
        0.0559936858        0.0000000000       12.3395157839      -15.5303820351     1011.7865631759
     -971.5894126498
        0.0714138602        0.0000000000        9.9070478068      -12.9382631887     1002.5177173257
     -961.2962395010
        0.0894442226        0.0000000000        7.7136504882      -10.5406032085      990.5071708402
     -948.4125862327
        0.1103870411        0.0000000000        5.9102754361       -8.5226725747      978.0927347567
     -935.2527834026
        0.1345260708        0.0000000000        4.4869774734       -6.8916455508      966.4212221885
     -922.9464756772
        0.1621034798        0.0000000000        3.3841723120       -5.5973183784      956.0032689481
     -911.9912190056
        0.1932919750        0.0000000000        2.5370996997       -4.5796880819      946.9970206909
     -902.5350279006
        0.2281638789        0.0000000000        1.8881631671       -3.7832529426      939.4042190762
     -894.5708268808
        0.2666603307        0.0000000000        1.3887934352       -3.1601249953      933.1666449034
     -888.0326113809
        0.3085651711        0.0000000000        0.9997784969       -2.6710074876      928.2023675801
     -882.8317404123
        0.3534889397        0.0000000000        0.6899745752       -2.2842942318      924.4258674141
     -878.8771530661
        0.4008682421        0.0000000000        0.4343838598       -1.9744519782      921.7613089305
     -876.0886227665
        0.4499841204        0.0000000000        0.2123783922       -1.7204263768      920.1438540397
     -874.3982707083
        0.5000000000        0.0000000000        0.0067328828       -1.5045648971      919.5287514373
     -873.7596129984
        0.5500158796        0.0000000000       -0.1983631421       -1.3109230790      919.9035271165
     -874.1594491209
        0.5991317579        0.0000000000       -0.4191072698       -1.1236336565      921.2544635726
     -875.5849533146
        0.6465110603        0.0000000000       -0.6727140722       -0.9258822890      923.5860436002
     -878.0428418190
        0.6914348289        0.0000000000       -0.9790288393       -0.6984228187      926.9222102272
     -881.5604194735
        0.7333396693        0.0000000000       -1.3624347295       -0.4175600692      931.2951619410
     -886.1745479793
        0.7718361211        0.0000000000       -1.8533645575       -0.0534783493      936.7396341174
     -891.9258816785
        0.8067080250        0.0000000000       -2.4899185280        0.4315941812      943.2875937174
     -898.8534177513
        0.8378965202        0.0000000000       -3.3197254102        1.0855416782      950.9649427880
     -906.9908962518
        0.8654739292        0.0000000000       -4.4020288641        1.9686659889      959.7858109012
     -916.3608158397
        0.8896129589        0.0000000000       -5.8086374575        3.1549727269      969.7513036305
     -926.9727563911
        0.9105557774        0.0000000000       -7.6230473722        4.7315642212      980.8479440190
     -938.8210842529
        0.9285861398        0.0000000000       -9.9439871134        6.8023413119      993.0499176339
     -951.8861903673
        0.9440063142        0.0000000000      -12.8813645011        9.4838347473     1006.3784749576
     -966.1930719468
        0.9571193802        0.0000000000      -16.6141846324       12.9630719100     1020.9366489089
     -981.8437435893
        0.9682166634        0.0000000000      -20.7692494607       16.8733897929     1037.6326395456
     -999.7395114374
        0.9775696027        0.0000000000       23.2405880385      -27.3090158712     1054.6431886076
    -1017.9705697229
        0.9854251662        0.0000000000     -132.3318071705      127.8741688348      748.8659515826
     -713.0559998040
        0.9920039252        0.0000000000     -183.4833615663      178.3234743862      423.1284932422
     -417.4825633983
        0.9975000000        0.0000000000       30.6876101751      -33.1360720213      201.7746864052
     -199.6747274956
        0.0025000000        0.0052480374      177.0114069651     -176.9294791904        4.1688435662
       -4.1107219095
        0.0079960748        0.0052480374      388.4913986430     -381.4754937940      323.6837310825
     -316.6975514079
        0.0145748338        0.0052480374      344.7453711391     -339.0212101691      577.7011127904
     -536.8619211598
        0.0224303973        0.0052480374       78.9057639826      -78.7336401451      732.0817789633
     -684.9282060279
        0.0317833366        0.0052480374       33.0291903369      -35.0033186347      782.7953821692
     -732.9844347229
        0.0428806198        0.0052480374       17.4028987981      -20.1647249553      798.1173257108
     -746.7835107902
        0.0559936858        0.0052480374       10.5781150562      -13.5266545193      798.9997577958
     -746.6124581240
        0.0714138602        0.0052480374        7.0156924112       -9.8839302580      793.9144146435
     -740.7150946461
        0.0894442226        0.0052480374        4.8825752829       -7.5619177207      786.5950781149
     -732.7371253033
        0.1103870411        0.0052480374        3.5001656976       -5.9571245822      778.7598801503
     -724.3560228952
        0.1345260708        0.0052480374        2.5588883520       -4.7954398593      771.2523909509
     -716.3917826274
        0.1621034798        0.0052480374        1.8899474004       -3.9246241513      764.4648546853
     -709.2217306015
        0.1932919750        0.0052480374        1.3994554180       -3.2575314590      758.5422983784
     -702.9810870888
        0.2281638789        0.0052480374        1.0334050215       -2.7418395817      753.5128150121
     -697.6903967369
        0.2666603307        0.0052480374        0.7561008797       -2.3414571324      749.3558711581
     -693.3228953206
        0.3085651711        0.0052480374        0.5419513801       -2.0295772762      746.0294966633
     -689.8314683031
        0.3534889397        0.0052480374        0.3720948085       -1.7859842099      743.4857908642
     -687.1640791904
        0.4008682421        0.0052480374        0.2318241997       -1.5948498998      741.6798034692
     -685.2725813645
        0.4499841204        0.0052480374        0.1092465665       -1.4435532375      740.5725632311
     -684.1158598602
        0.5000000000        0.0052480374       -0.0047868934       -1.3222147209      740.1380598441
     -683.6667095707
        0.5500158796        0.0052480374       -0.1196578737       -1.2214948024      740.3668575825
     -683.9152029013
        0.5991317579        0.0052480374       -0.2457263591       -1.1317456863      741.2489213401
     -684.8521997030
        0.6465110603        0.0052480374       -0.3931719030       -1.0437165889      742.7865491954
     -686.4818603435
        0.6914348289        0.0052480374       -0.5743117081       -0.9465001322      744.9931563255
     -688.8202675697
        0.7333396693        0.0052480374       -0.8052594031       -0.8258601988      747.8859608207
     -691.8883699796
        0.7718361211        0.0052480374       -1.1067682462       -0.6632748792      751.4824232553
     -695.7084051274
        0.8067080250        0.0052480374       -1.5053729043       -0.4346350797      755.7965577144
     -700.3001174742
        0.8378965202        0.0052480374       -2.0349197773       -0.1085112283      760.8356552608
     -705.6772653204
        0.8654739292        0.0052480374       -2.7382391777        0.3556755273      766.5962251054
     -711.8433636056
        0.8896129589        0.0052480374       -3.6676320790        1.0084821407      773.0619690981
     -718.7893408860
        0.9105557774        0.0052480374       -4.8837681180        1.9096780405      780.2013627291
     -726.4905568699
        0.9285861398        0.0052480374       -6.4513222815        3.1239769374      787.9644445596
     -734.9029141080
        0.9440063142        0.0052480374       -8.4252387212        4.7079089793      796.3228004474
     -744.0014895833
        0.9571193802        0.0052480374      -10.7720905991        6.6302071262      805.2742420626
     -753.7830216342
        0.9682166634        0.0052480374      -13.4691060886        8.8887602921      815.3821999475
     -764.7919582396
        0.9775696027        0.0052480374      -51.0330585093       45.9791830809      824.6579617350
     -774.9891164692
        0.9854251662        0.0052480374     -326.5637218436      315.7430217129      604.2477067034
     -558.4711234682
        0.9920039252        0.0052480374     -381.2476068112      367.7650432871      354.6625586884
     -342.3766345468
        0.9975000000        0.0052480374     -167.9035909350      160.4669738866      176.5070790949
     -171.2964803061
        0.0025000000        0.0112854543      495.6527426991     -479.6886214290      497.4720015394
     -497.4038585879
        0.0079960748        0.0112854543      935.3125338824     -902.0792758060      719.2805705139
     -707.1608154570
        0.0145748338        0.0112854543      839.5217682213     -818.0108531228     2247.3323901429
    -2209.8392358497
        0.0224303973        0.0112854543      180.2941748146     -172.0503079705     2508.8515729623
    -2465.1230304746
        0.0317833366        0.0112854543       67.3513120102      -65.0773039110     2622.9732888978
    -2576.8611341051
        0.0428806198        0.0112854543       29.3163479736      -29.8274929798     2676.7973902316
    -2629.4418244300
        0.0559936858        0.0112854543       14.1388064249      -15.9189851858     2702.2355041951
    -2654.1038723889
        0.0714138602        0.0112854543        7.4932924863       -9.7592020156     2713.7845964881
    -2665.1049194736
        0.0894442226        0.0112854543        4.3347393876       -6.6863519787     2718.7396419521
    -2669.6399105773
        0.1103870411        0.0112854543        2.7103916334       -4.9597581572     2720.6000629857
    -2671.1642997281
        0.1345260708        0.0112854543        1.8114057740       -3.8857769915     2721.0708497679
    -2671.3606372690
        0.1621034798        0.0112854543        1.2692616982       -3.1527599261     2720.9806117908
    -2671.0445361436
        0.1932919750        0.0112854543        0.9125207092       -2.6178759742     2720.7223148825
    -2670.6010461144
        0.2281638789        0.0112854543        0.6620584521       -2.2133850781     2720.4405247532
    -2670.1689748540
        0.2666603307        0.0112854543        0.4784713632       -1.9032703636     2720.1839291591
    -2669.7927079038
        0.3085651711        0.0112854543        0.3388428852       -1.6643655023     2719.9605393058
    -2669.4768330085
        0.3534889397        0.0112854543        0.2285875897       -1.4806569789     2719.7662445865
    -2669.2145011478
        0.4008682421        0.0112854543        0.1372910363       -1.3403721002     2719.5925683896
    -2668.9952101063
        0.4499841204        0.0112854543        0.0573152594       -1.2347991765     2719.4379311184
    -2668.8160032136
        0.5000000000        0.0112854543       -0.0176994096       -1.1562211176     2719.3148183787
    -2668.6885705616
        0.5500158796        0.0112854543       -0.0949044824       -1.0987829717     2719.2048230746
    -2668.5943191477
        0.5991317579        0.0112854543       -0.1813167463       -1.0558900781     2719.1081782692
    -2668.5342658622
        0.6465110603        0.0112854543       -0.2837605771       -1.0224888508     2719.0384817423
    -2668.5232201165
        0.6914348289        0.0112854543       -0.4111931496       -0.9920630184     2719.0097431298
    -2668.5769242378
        0.7333396693        0.0112854543       -0.5755915923       -0.9558472514     2719.0413324876
    -2668.7172303285
        0.7718361211        0.0112854543       -0.7922896537       -0.9023722254     2719.1631974491
    -2668.9772767225
        0.8067080250        0.0112854543       -1.0805924079       -0.8166832932     2719.4207295025
    -2669.4062904117
        0.8378965202        0.0112854543       -1.4646408628       -0.6792300562     2719.8793935928
    -2670.0741969017
        0.8654739292        0.0112854543       -1.9740098664       -0.4650966293     2720.6288404665
    -2671.0755120152
        0.8896129589        0.0112854543       -2.6434401681       -0.1436138781     2721.7886578392
    -2672.5349640249
        0.9105557774        0.0112854543       -3.5110090353        0.3200496140     2723.5016525309
    -2674.6008048610
        0.9285861398        0.0112854543       -4.6029995638        0.9488145317     2725.9319678329
    -2677.4428031849
        0.9440063142        0.0112854543       -5.8955404694        1.7179433705     2729.3241184719
    -2681.3091806704
        0.9571193802        0.0112854543       -7.5337696405        2.7775366327     2734.1365051285
    -2686.6531769636
        0.9682166634        0.0112854543      -47.9079284584       42.4337908548     2737.9859812509
    -2691.0451382967
        0.9775696027        0.0112854543     -178.3537493771      166.4379465882     2483.5000605853
    -2436.1952915980
        0.9854251662        0.0112854543     -839.4806836984      812.3064510450     2219.3529346453
    -2174.5878081096
        0.9920039252        0.0112854543     -907.9123499872      867.4156263691      668.2700037220
     -650.9563957172
        0.9975000000        0.0112854543     -426.4767024696      399.5566636096      420.3365339896
     -412.3386625642
        0.0025000000        0.0185026156      739.1039841414     -705.1148131830       67.3611833055
      -68.6272470433
        0.0079960748        0.0185026156     1484.1787633098    -1427.0650840018      179.3807576310
     -173.7077774945
        0.0145748338        0.0185026156     1410.3841744048    -1375.9552867381      408.7843822427
     -394.5721054948
        0.0224303973        0.0185026156      287.5220793393     -272.0787589821      489.4244464473
     -472.5493318105
        0.0317833366        0.0185026156      111.0515145240     -104.9818801064      537.3546213194
     -519.5449506462
        0.0428806198        0.0185026156       48.1057545770      -46.7804584275      565.9427134521
     -547.5416018690
        0.0559936858        0.0185026156       22.2106755062      -23.3001932750      582.4239783338
     -563.5605437849
        0.0714138602        0.0185026156       10.9283485727      -13.1328442575      591.8899367376
     -572.6303702807
        0.0894442226        0.0185026156        5.7741170190       -8.3677042476      597.3431677145
     -577.7324774445
        0.1103870411        0.0185026156        3.2905323264       -5.9043401036      600.4633119064
     -580.5416375080
        0.1345260708        0.0185026156        2.0284927119       -4.4971816859      602.2462102487
     -582.0548022641
        0.1621034798        0.0185026156        1.3389450267       -3.6006767710      603.2544552147
     -582.8339827629
        0.1932919750        0.0185026156        0.9253187493       -2.9762864177      603.8233033240
     -583.2113066244
        0.2281638789        0.0185026156        0.6528473490       -2.5150604289      604.1319235765
     -583.3626641744
        0.2666603307        0.0185026156        0.4606297591       -2.1657059587      604.2747719925
     -583.3795718469
        0.3085651711        0.0185026156        0.3174758068       -1.8990012633      604.3061939286
     -583.3136383167
        0.3534889397        0.0185026156        0.2055086559       -1.6961205072      604.2586382873
     -583.1948241920
        0.4008682421        0.0185026156        0.1132767933       -1.5441573280      604.1512251724
     -583.0402611657
        0.4499841204        0.0185026156        0.0334272008       -1.4341111213      603.9983517307
     -582.8627607384
        0.5000000000        0.0185026156       -0.0420809374       -1.3559122802      603.8114717551
     -582.6727447247
        0.5500158796        0.0185026156       -0.1218646676       -1.3042260812      603.5797889767
     -582.4593374825
        0.5991317579        0.0185026156       -0.2117189529       -1.2726530962      603.2884508231
     -582.2081488586
        0.6465110603        0.0185026156       -0.3180888262       -1.2574306709      602.9310710947
     -581.9132277733
        0.6914348289        0.0185026156       -0.4505902225       -1.2524874880      602.4933301051
     -581.5613983379
        0.7333396693        0.0185026156       -0.6215120581       -1.2499175373      601.9516108624
     -581.1306366657
        0.7718361211        0.0185026156       -0.8459254021       -1.2398206993      601.2754801485
     -580.5924587835
        0.8067080250        0.0185026156       -1.1422254087       -1.2094902310      600.4285383673
     -579.9126904124
        0.8378965202        0.0185026156       -1.5325084535       -1.1426858273      599.3669538177
     -579.0499907894
        0.8654739292        0.0185026156       -2.0424572487       -1.0194676683      598.0417839178
     -577.9579211740
        0.8896129589        0.0185026156       -2.7019872475       -0.8144624238      596.3961783986
     -576.5820458040
        0.9105557774        0.0185026156       -3.5412889500       -0.5008799862      594.3541124210
     -574.8490412640
        0.9285861398        0.0185026156       -4.5615271686       -0.0812799759      591.8453837032
     -572.6907146349
        0.9440063142        0.0185026156       -5.6778026354        0.3601302896      588.8431009807
     -570.0809038029
        0.9571193802        0.0185026156       -7.5514509036        1.4928528657      585.3039685673
     -566.9651544549
        0.9682166634        0.0185026156     -100.2265645034       93.0420412462      580.1078894360
     -562.1462872130
        0.9775696027        0.0185026156     -321.7423363671      301.8614031986      543.5813403208
     -523.9864226398
        0.9854251662        0.0185026156    -1423.5782038898     1382.2764652711      423.4688896078
     -399.1810893434
        0.9920039252        0.0185026156    -1446.7844157520     1381.4167721484      202.0102232280
     -190.7547402199
        0.9975000000        0.0185026156     -636.2598105819      589.1930148527      149.5900751432
     -144.7448783662
        0.0025000000        0.0271068670      859.7779200405     -822.3952365786       31.9760236346
      -35.0196558960
        0.0079960748        0.0271068670     1629.0296495898    -1565.6133387832       63.7491324100
      -64.7786712398
        0.0145748338        0.0271068670     1548.1724497367    -1509.9466444198      149.3727676436
     -150.4849066806
        0.0224303973        0.0271068670      337.1200837193     -319.6846786049      190.6629354087
     -191.5560398677
        0.0317833366        0.0271068670      137.6118765367     -130.9910918319      220.7198726443
     -222.0437496065
        0.0428806198        0.0271068670       62.0976860764      -61.1188085248      241.3201928419
     -242.8493501815
        0.0559936858        0.0271068670       29.4838363934      -31.4391338753      254.7593242406
     -256.2967790945
        0.0714138602        0.0271068670       14.7771443788      -18.0977504547      263.6625433829
     -265.0798256945
        0.0894442226        0.0271068670        7.8574716148      -11.6390259053      269.6553090378
     -270.8858800060
        0.1103870411        0.0271068670        4.4517228769       -8.2251989660      273.7862338943
     -274.8060332774
        0.1345260708        0.0271068670        2.6988434596       -6.2538827579      276.7255969485
     -277.5399920389
        0.1621034798        0.0271068670        1.7410984240       -4.9971445701      278.8647564370
     -279.4943976270
        0.1932919750        0.0271068670        1.1759876744       -4.1302257601      280.4704357440
     -280.9401683331
        0.2281638789        0.0271068670        0.8115673086       -3.4963005232      281.6863912996
     -282.0222369948
        0.2666603307        0.0271068670        0.5597705393       -3.0204273860      282.5985200106
     -282.8258276906
        0.3085651711        0.0271068670        0.3754464515       -2.6600173062      283.2600936614
     -283.4028165299
        0.3534889397        0.0271068670        0.2330138899       -2.3881618178      283.7018313256
     -283.7825508950
        0.4008682421        0.0271068670        0.1170979498       -2.1872690069      283.9440663897
     -283.9838911882
        0.4499841204        0.0271068670        0.0177269995       -2.0445777414      284.0075968442
     -284.0263442719
        0.5000000000        0.0271068670       -0.0766345201       -1.9462464554      283.9021920655
     -283.9188084470
        0.5500158796        0.0271068670       -0.1777026319       -1.8850249084      283.6229314938
     -283.6561513208
        0.5991317579        0.0271068670       -0.2922876059       -1.8531892872      283.1583001168
     -283.2270763427
        0.6465110603        0.0271068670       -0.4283274876       -1.8464269395      282.5035476504
     -282.6264507237
        0.6914348289        0.0271068670       -0.5989349292       -1.8567459065      281.6463990619
     -281.8422673362
        0.7333396693        0.0271068670       -0.8206935439       -1.8738222084      280.5662069705
     -280.8542651468
        0.7718361211        0.0271068670       -1.1139159624       -1.8848149283      279.2377739492
     -279.6375844400
        0.8067080250        0.0271068670       -1.5039093438       -1.8726254815      277.6331595604
     -278.1645000076
        0.8378965202        0.0271068670       -2.0218060746       -1.8148265147      275.7237265094
     -276.4063489983
        0.8654739292        0.0271068670       -2.7056679641       -1.6820205568      273.4823296993
     -274.3356508266
        0.8896129589        0.0271068670       -3.6029783781       -1.4339400910      270.8800229443
     -271.9226538876
        0.9105557774        0.0271068670       -4.7668251216       -1.0236883500      267.8935484500
     -269.1428650730
        0.9285861398        0.0271068670       -6.2178895457       -0.4366482913      264.4946055093
     -265.9653291291
        0.9440063142        0.0271068670       -7.8928010160        0.2659046573      260.6879962771
     -262.3919879725
        0.9571193802        0.0271068670      -10.7961577644        2.0893939400      256.4971922031
     -258.4299586134
        0.9682166634        0.0271068670     -114.5149252511      104.1229195150      251.2749595113
     -253.3177198553
        0.9775696027        0.0271068670     -375.2503476956      351.0793683329      230.0284900874
     -229.8665951731
        0.9854251662        0.0271068670    -1562.9099733732     1514.5642903973      190.9123044685
     -181.8166363332
        0.9920039252        0.0271068670    -1561.8129295437     1486.2110602020      117.8751311304
     -114.5324138871
        0.9975000000        0.0271068670     -698.4762004278      641.7083872173       95.5687201405
      -96.0763035540
        0.0025000000        0.0373319782      899.1087064281     -859.7459581431       19.4321011150
      -23.1325592609
        0.0079960748        0.0373319782     1688.2262113141    -1622.2072975119       27.9651054935
      -31.8285631815
        0.0145748338        0.0373319782     1615.7589687149    -1575.7713849370       62.2973830463
      -71.2435121298
        0.0224303973        0.0373319782      369.3356257580     -351.0722616541       83.1165477722
      -93.6252261858
        0.0317833366        0.0373319782      157.7514076236     -151.2025092389      100.7536485604
     -112.8309955837
        0.0428806198        0.0373319782       73.9162198816      -73.6549111137      114.0668224102
     -127.1027396235
        0.0559936858        0.0373319782       36.2234996411      -39.3131612030      123.3493777269
     -136.9015739154
        0.0714138602        0.0373319782       18.6682014992      -23.3352744265      129.7521961200
     -143.5301895742
        0.0894442226        0.0373319782       10.1520636102      -15.3482018548      134.1734294237
     -148.0065455500
        0.1103870411        0.0373319782        5.8472836438      -11.0078323177      137.2891773496
     -151.0858008678
        0.1345260708        0.0373319782        3.5762621979       -8.4443636563      139.5223531218
     -153.2441446449
        0.1621034798        0.0373319782        2.3123241213       -6.7865813630      141.1657777414
     -154.8040674879
        0.1932919750        0.0373319782        1.5587428664       -5.6345090488      142.4008704248
     -155.9595018263
        0.2281638789        0.0373319782        1.0707344732       -4.7888507677      143.3333436603
     -156.8222421182
        0.2666603307        0.0373319782        0.7334902044       -4.1526668103      144.0256928861
     -157.4570020512
        0.3085651711        0.0373319782        0.4869758471       -3.6700567232      144.5178943022
     -157.9041801904
        0.3534889397        0.0373319782        0.2967605011       -3.3054408221      144.8365361482
     -158.1902182151
        0.4008682421        0.0373319782        0.1425939400       -3.0359239660      144.9989399712
     -158.3317186433
        0.4499841204        0.0373319782        0.0105760673       -2.8438666074      145.0207513873
     -158.3437685916
        0.5000000000        0.0373319782       -0.1150813691       -2.7115044998      144.9063077380
     -158.2301568657
        0.5500158796        0.0373319782       -0.2493076639       -2.6286086792      144.6529395093
     -157.9878304723
        0.5991317579        0.0373319782       -0.4010298852       -2.5856843884      144.2564715054
     -157.6126807223
        0.6465110603        0.0373319782       -0.5803747593       -2.5765821898      143.7092006842
     -157.0959656772
        0.6914348289        0.0373319782       -0.8040965974       -2.5910078285      143.0068411945
     -156.4327599881
        0.7333396693        0.0373319782       -1.0934136474       -2.6153385976      142.1387030915
     -155.6115904470
        0.7718361211        0.0373319782       -1.4738482955       -2.6330676879      141.0942462454
     -154.6207651143
        0.8067080250        0.0373319782       -1.9769468198       -2.6223809122      139.8628998251
     -153.4482305556
        0.8378965202        0.0373319782       -2.6416891969       -2.5545389102      138.4382641083
     -152.0856058666
        0.8654739292        0.0373319782       -3.5169012855       -2.3904795194      136.8132934741
     -150.5235079545
        0.8896129589        0.0373319782       -4.6635726110       -2.0770486334      134.9800987377
     -148.7512415198
        0.9105557774        0.0373319782       -6.1528099493       -1.5491380203      132.9307892067
     -146.7578740263
        0.9285861398        0.0373319782       -8.0307565929       -0.7667686512      130.6551136695
     -144.5297566554
        0.9440063142        0.0373319782      -10.2450565124        0.2230539629      128.1067659056
     -142.0196838963
        0.9571193802        0.0373319782      -14.0295956650        2.6536357950      125.3345906624
     -139.2554602118
        0.9682166634        0.0373319782     -125.3693291391      111.9184125673      121.9759961252
     -135.7252445901
        0.9775696027        0.0373319782     -401.0800272134      372.9514821454      108.1856934811
     -119.2577060899
        0.9854251662        0.0373319782    -1617.4701873618     1564.1735353227       93.8685740572
      -93.9293929085
        0.9920039252        0.0373319782    -1611.6837149924     1529.3402370931       68.0179353188
      -70.6178199074
        0.9975000000        0.0373319782     -729.5464321748      665.8977517718       58.7296724758
      -63.7035256912
        0.0025000000        0.0494371528      908.8468363044     -868.0321184783       13.2647888954
      -17.1484883410
        0.0079960748        0.0494371528     1712.9179805815    -1645.5280263170       14.1884791953
      -19.2455789037
        0.0145748338        0.0494371528     1650.2161818512    -1609.1671552420       28.0145186682
      -41.0996285223
        0.0224303973        0.0494371528      389.6415248690     -370.8022670486       38.3199381272
      -54.0814848612
        0.0317833366        0.0494371528      171.9644631483     -165.4155331312       48.1934570866
      -66.3218900382
        0.0428806198        0.0494371528       82.8659569689      -83.0767578263       56.1681044321
      -75.8410486500
        0.0559936858        0.0494371528       41.5744559416      -45.4803306633       61.9675531811
      -82.5867663669
        0.0714138602        0.0494371528       21.8507227259      -27.5328751284       66.1040337896
      -87.2598862991
        0.0894442226        0.0494371528       12.0633359512      -18.3617558237       69.0019547744
      -90.4372974065
        0.1103870411        0.0494371528        7.0200604759      -13.2876567822       71.0614255260
      -92.6235531072
        0.1345260708        0.0494371528        4.3131377234      -10.2467363635       72.5228229352
      -94.1327269999