 variables=x,y,T1_j,T1_G_j,T2_j,T2_G_j,T12_j,T12_G_j,T3_j,T3_G_j
  zone i=           39  j=           40
        0.0025000000        0.0000000000       -0.0578532071        0.0305448535        0.0576500790       -0.0302728230        0.0022276377       -0.0044838923        0.0002031281       -0.0002720306
        0.0079960748        0.0000000000       -0.0451313322        0.0164749155        0.0481054734       -0.0195618373        0.0133529897       -0.0145759449       -0.0029741412        0.0030869218
        0.0145748338        0.0000000000       -0.0325791087        0.0023200282        0.0377914092       -0.0077816664        0.0165284803       -0.0181832475       -0.0052123005        0.0054616382
        0.0224303973        0.0000000000       -0.0295094874       -0.0026071132        0.0344941634       -0.0028039469        0.0119341218       -0.0145859729       -0.0049846760        0.0054110601
        0.0317833366        0.0000000000       -0.0294637499       -0.0049178475        0.0336572777        0.0000334818        0.0046383771       -0.0091039734       -0.0041935278        0.0048843657
        0.0428806198        0.0000000000       -0.0326307347       -0.0045056448        0.0364199281       -0.0001997847       -0.0033551711       -0.0036569569       -0.0037891934        0.0047054295
        0.0559936858        0.0000000000       -0.0372360267       -0.0032820923        0.0409072196       -0.0015584208       -0.0128347530        0.0021246870       -0.0036711928        0.0048405131
        0.0714138602        0.0000000000       -0.0429851331       -0.0013569950        0.0470465216       -0.0040710134       -0.0243105438        0.0086767080       -0.0040613886        0.0054280084
        0.0894442226        0.0000000000       -0.0492883610        0.0007278561        0.0537919541       -0.0068272662       -0.0390519530        0.0167317253       -0.0045035931        0.0060994101
        0.1103870411        0.0000000000       -0.0555793743        0.0028021278        0.0609701871       -0.0099470688       -0.0573337442        0.0265372130       -0.0053908128        0.0071449410
        0.1345260708        0.0000000000       -0.0600702938        0.0035996803        0.0657458374       -0.0112339803       -0.0809439055        0.0392740451       -0.0056755436        0.0076343000
        0.1621034798        0.0000000000       -0.0628991051        0.0037469231        0.0687526721       -0.0117731587       -0.1095638546        0.0547403211       -0.0058535670        0.0080262356
        0.1932919750        0.0000000000       -0.0645353932        0.0039788243        0.0705614546       -0.0123360647       -0.1433109260        0.0728445279       -0.0060260614        0.0083572404
        0.2281638789        0.0000000000       -0.0643415553        0.0042954265        0.0707065658       -0.0130511039       -0.1797401405        0.0918903144       -0.0063650105        0.0087556774
        0.2666603307        0.0000000000       -0.0607380590        0.0038690212        0.0668162760       -0.0123003059       -0.2191482740        0.1127806068       -0.0060782170        0.0084312847
        0.3085651711        0.0000000000       -0.0546338019        0.0036822231        0.0602082522       -0.0114714451       -0.2581151741        0.1332770331       -0.0055744503        0.0077892219
        0.3534889397        0.0000000000       -0.0455510625        0.0035592360        0.0502822561       -0.0102895318       -0.2961701285        0.1540423829       -0.0047311936        0.0067302958
        0.4008682421        0.0000000000       -0.0335940326        0.0034441548        0.0371922307       -0.0086595596       -0.3273518621        0.1710302825       -0.0035981982        0.0052154048
        0.4499841204        0.0000000000       -0.0188543583        0.0028817374        0.0212469823       -0.0064539760       -0.3498650976        0.1836552795       -0.0023926240        0.0035722387
        0.5000000000        0.0000000000       -0.0000853895       -0.0000360667        0.0002199243       -0.0007833922       -0.3584229808        0.1886017124       -0.0001345347        0.0008194589
        0.5500158796        0.0000000000        0.0188666918       -0.0030313467       -0.0211371240        0.0051339663       -0.3508728891        0.1842971356        0.0022704322       -0.0021026196
        0.5991317579        0.0000000000        0.0336529546       -0.0034229154       -0.0371704432        0.0072306429       -0.3291721068        0.1722637062        0.0035174886       -0.0038077275
        0.6465110603        0.0000000000        0.0458399502       -0.0034331314       -0.0506983927        0.0090477757       -0.2984830033        0.1557307016        0.0048584426       -0.0056146443
        0.6914348289        0.0000000000        0.0549886801       -0.0032980425       -0.0606240073        0.0099624630       -0.2607955304        0.1354757626        0.0056353272       -0.0066644205
        0.7333396693        0.0000000000        0.0612101264       -0.0033556320       -0.0674327541        0.0107968747       -0.2219009058        0.1153849938        0.0062226277       -0.0074412426
        0.7718361211        0.0000000000        0.0648613072       -0.0036699475       -0.0714959100        0.0116433922       -0.1821159625        0.0945265544        0.0066346028       -0.0079734447
        0.8067080250        0.0000000000        0.0652250596       -0.0034403568       -0.0716323196        0.0111955771       -0.1457554963        0.0759486074        0.0064072600       -0.0077552203
        0.8378965202        0.0000000000        0.0634046479       -0.0030321727       -0.0695784195        0.0104361037       -0.1119405944        0.0581674967        0.0061737716       -0.0074039311
        0.8654739292        0.0000000000        0.0603667484       -0.0027951173       -0.0663425574        0.0098430925       -0.0829496838        0.0426589685        0.0059758091       -0.0070479752
        0.8896129589        0.0000000000        0.0558797690       -0.0021142472       -0.0615762353        0.0087053992       -0.0594366243        0.0302935255        0.0056964663       -0.0065911521
        0.9105557774        0.0000000000        0.0494724322       -0.0000765493       -0.0542658621        0.0056503859       -0.0409949624        0.0205331291        0.0047934298       -0.0055738365
        0.9285861398        0.0000000000        0.0429874204        0.0020315315       -0.0473343627        0.0029017328       -0.0263497390        0.0127130133        0.0043469423       -0.0049332643
        0.9440063142        0.0000000000        0.0369461563        0.0041024289       -0.0408801649        0.0002356510       -0.0148540316        0.0062309276        0.0039340086       -0.0043380799
        0.9571193802        0.0000000000        0.0321776647        0.0053723107       -0.0362323114       -0.0011651848       -0.0054072234        0.0005376644        0.0040546467       -0.0042071259
        0.9682166634        0.0000000000        0.0287525995        0.0059432798       -0.0331757980       -0.0015974453        0.0026419478       -0.0049378389        0.0044231986       -0.0043458344
        0.9775696027        0.0000000000        0.0285492208        0.0037966690       -0.0338099227        0.0011233700        0.0100822390       -0.0105622476        0.0052607019       -0.0049200390
        0.9854251662        0.0000000000        0.0312324426       -0.0008224568       -0.0368582874        0.0059425559        0.0150926697       -0.0145751263        0.0056258448       -0.0051200991
        0.9920039252        0.0000000000        0.0433356107       -0.0145701253       -0.0470080638        0.0176036035        0.0125585751       -0.0116211267        0.0036724531       -0.0030334782
        0.9975000000        0.0000000000        0.0565738698       -0.0291040771       -0.0580524985        0.0297324952        0.0025463880       -0.0027448941        0.0014786287       -0.0006284181
        0.0025000000        0.0052480374       -0.0521431569        0.0241740978        0.0521969899       -0.0240678958       -0.0024035623       -0.0004688060       -0.0000538330       -0.0001062020
        0.0079960748        0.0052480374       -0.0440000488        0.0141980916        0.0452297422       -0.0154511539        0.0084810478       -0.0103215060       -0.0012296934        0.0012530623
        0.0145748338        0.0052480374       -0.0355852348        0.0038757523        0.0373498981       -0.0058178094        0.0129880983       -0.0150638323       -0.0017646633        0.0019420571
        0.0224303973        0.0052480374       -0.0332349977       -0.0004799724        0.0345719045       -0.0012023181        0.0101466303       -0.0130416238       -0.0013369068        0.0016822906
        0.0317833366        0.0052480374       -0.0332177105       -0.0028671682        0.0338230539        0.0016526361        0.0043439154       -0.0089308084       -0.0006053433        0.0012145321
        0.0428806198        0.0052480374       -0.0361184648       -0.0028352763        0.0363460220        0.0017790894       -0.0023417054       -0.0047274323       -0.0002275571        0.0010561869
        0.0559936858        0.0052480374       -0.0407153411       -0.0017647557        0.0406314977        0.0007755837       -0.0107204040       -0.0000159275        0.0000838434        0.0009891719
        0.0714138602        0.0052480374       -0.0466367797        0.0001504370        0.0465614987       -0.0013340661       -0.0210997945        0.0054633469        0.0000752810        0.0011836291
        0.0894442226        0.0052480374       -0.0531901402        0.0022699012        0.0531065838       -0.0036618377       -0.0345572397        0.0122784808        0.0000835564        0.0013919365
        0.1103870411        0.0052480374       -0.0597984055        0.0044519346        0.0600780680       -0.0063455730       -0.0514261284        0.0207535744       -0.0002796625        0.0018936384
        0.1345260708        0.0052480374       -0.0646584618        0.0054448293        0.0648089880       -0.0073920667       -0.0732215798        0.0318161109       -0.0001505262        0.0019472374
        0.1621034798        0.0052480374       -0.0677189835        0.0057074278        0.0677873733       -0.0077734785       -0.0994301120        0.0450224178       -0.0000683898        0.0020660507
        0.1932919750        0.0052480374       -0.0693041910        0.0058458766        0.0694809252       -0.0081713038       -0.1302531668        0.0603716895       -0.0001767342        0.0023254272
        0.2281638789        0.0052480374       -0.0689138510        0.0059818879        0.0695059515       -0.0087772262       -0.1636041631        0.0765207025       -0.0005921005        0.0027953383
        0.2666603307        0.0052480374       -0.0650462896        0.0054192345        0.0656732321       -0.0082264818       -0.1996701189        0.0942981451       -0.0006269425        0.0028072472
        0.3085651711        0.0052480374       -0.0585690893        0.0051197343        0.0592013031       -0.0078085733       -0.2352789801        0.1116579018       -0.0006322138        0.0026888390
        0.3534889397        0.0052480374       -0.0488975420        0.0048555230        0.0494690623       -0.0072872660       -0.2700653024        0.1293935936       -0.0005715203        0.0024317430
        0.4008682421        0.0052480374       -0.0360809309        0.0044450777        0.0365931734       -0.0064605701       -0.2985801473        0.1439278032       -0.0005122424        0.0020154924
        0.4499841204        0.0052480374       -0.0202393979        0.0034680785        0.0208724273       -0.0052039474       -0.3192839317        0.1549198807       -0.0006330294        0.0017358689
        0.5000000000        0.0052480374       -0.0001437930        0.0000116813        0.0002331385       -0.0007528032       -0.3272476018        0.1593500273       -0.0000893455        0.0007411218
        0.5500158796        0.0052480374        0.0201340819       -0.0035146236       -0.0207158637        0.0039185081       -0.3202653421        0.1555469039        0.0005817818       -0.0004038844
        0.5991317579        0.0052480374        0.0360544680       -0.0043521015       -0.0365386627        0.0050701280       -0.3003422511        0.1451251494        0.0004841947       -0.0007180266
        0.6465110603        0.0052480374        0.0491148540       -0.0046606980       -0.0498350677        0.0060473424       -0.2722947534        0.1310254885        0.0007202137       -0.0013866444
        0.6914348289        0.0052480374        0.0588866855       -0.0046978813       -0.0595918534        0.0063137213       -0.2378420015        0.1137695894        0.0007051679       -0.0016158401
        0.7333396693        0.0052480374        0.0655329400       -0.0049065224       -0.0662810284        0.0067324131       -0.2023032343        0.0968142217        0.0007480883       -0.0018258907
        0.7718361211        0.0052480374        0.0694460037       -0.0053472073       -0.0702743665        0.0073515380       -0.1658841340        0.0790874976        0.0008283628       -0.0020043307
        0.8067080250        0.0052480374        0.0699698288       -0.0052673692       -0.0704947751        0.0069808057       -0.1325571385        0.0633592652        0.0005249462       -0.0017134365
        0.8378965202        0.0052480374        0.0682562572       -0.0050104605       -0.0685968899        0.0064222865       -0.1016278501        0.0482963461        0.0003406327       -0.0014118260
        0.8654739292        0.0052480374        0.0649756471       -0.0046524040       -0.0653937326        0.0059942418       -0.0750765582        0.0350716937        0.0004180855       -0.0013418378
        0.8896129589        0.0052480374        0.0600928468       -0.0037510304       -0.0606558974        0.0050773776       -0.0533590110        0.0243693740        0.0005630506       -0.0013263472
        0.9105557774        0.0052480374        0.0533750426       -0.0016153203       -0.0535591441        0.0024678394       -0.0363199463        0.0159287229        0.0001841015       -0.0008525192
        0.9285861398        0.0052480374        0.0466173899        0.0005496287       -0.0468228641        0.0001420922       -0.0229262148        0.0093209319        0.0002054742       -0.0006917210
        0.9440063142        0.0052480374        0.0404208083        0.0025934560       -0.0405997974       -0.0020987425       -0.0125198319        0.0039099478        0.0001789892       -0.0004947135
        0.9571193802        0.0052480374        0.0356708352        0.0037035699       -0.0361648802       -0.0031383188       -0.0041601742       -0.0007214508        0.0004940450       -0.0005652510
        0.9682166634        0.0052480374        0.0325684516        0.0038457287       -0.0333907391       -0.0031747189        0.0025887786       -0.0049551700        0.0008222875       -0.0006710099
        0.9775696027        0.0052480374        0.0324771897        0.0014937529       -0.0340148207       -0.0003716879        0.0085086669       -0.0091774903        0.0015376310       -0.0011220649
        0.9854251662        0.0052480374        0.0346821331       -0.0027811408       -0.0366705062        0.0041958100        0.0116943241       -0.0115455439        0.0019883731       -0.0014146692
        0.9920039252        0.0052480374        0.0430781174       -0.0131157179       -0.0445980375        0.0139134482        0.0072440713       -0.0068711177        0.0015199201       -0.0007977304
        0.9975000000        0.0052480374        0.0520856112       -0.0239096546       -0.0531288944        0.0240169205       -0.0032638100        0.0024780312        0.0010432832       -0.0001072659
        0.0025000000        0.0112854543       -0.0414192314        0.0120340520        0.0378120950       -0.0080821095       -0.0153414643        0.0119304547        0.0036071364       -0.0039519425
        0.0079960748        0.0112854543       -0.0408119439        0.0088253020        0.0402238089       -0.0080604123       -0.0048824459        0.0023082332        0.0005881350       -0.0007648898
        0.0145748338        0.0112854543       -0.0389148891        0.0044283156        0.0396755601       -0.0051798715        0.0026947515       -0.0053117231       -0.0007606710        0.0007515559
        0.0224303973        0.0112854543       -0.0386848925        0.0018064686        0.0395274611       -0.0028093397        0.0032329992       -0.0064147278       -0.0008425686        0.0010028711
        0.0317833366        0.0112854543       -0.0400539954        0.0005021990        0.0409440908       -0.0018079107        0.0010346478       -0.0057245065       -0.0008900954        0.0013057117
        0.0428806198        0.0112854543       -0.0435055320        0.0007978730        0.0443210133       -0.0022357621       -0.0033855609       -0.0036664902       -0.0008154813        0.0014378891
        0.0559936858        0.0112854543       -0.0487435803        0.0021725008        0.0495483634       -0.0038279471       -0.0098027242       -0.0008675392       -0.0008047831        0.0016554463
        0.0714138602        0.0112854543       -0.0554208143        0.0044548089        0.0563868829       -0.0064377195       -0.0183358928        0.0027934119       -0.0009660685        0.0019829106
        0.0894442226        0.0112854543       -0.0628271915        0.0069933739        0.0639459158       -0.0093270249       -0.0295322346        0.0074009407       -0.0011187243        0.0023336510
        0.1103870411        0.0112854543       -0.0701986048        0.0095308259        0.0717383585       -0.0123906755       -0.0437291687        0.0133120091       -0.0015397538        0.0028598496
        0.1345260708        0.0112854543       -0.0761198752        0.0112405424        0.0779632385       -0.0145319476       -0.0612269122        0.0202933998       -0.0018433634        0.0032914052
        0.1621034798        0.0112854543       -0.0799224023        0.0120042945        0.0819588579       -0.0156516898       -0.0818228326        0.0281452761       -0.0020364557        0.0036473953
        0.1932919750        0.0112854543       -0.0816803936        0.0122314046        0.0838529704       -0.0161496012       -0.1061062802        0.0372479533       -0.0021725768        0.0039181966
        0.2281638789        0.0112854543       -0.0806160251        0.0117735945        0.0828241103       -0.0157779420       -0.1335840060        0.0478227743       -0.0022080852        0.0040043476
        0.2666603307        0.0112854543       -0.0762143783        0.0109842492        0.0785356721       -0.0150824439       -0.1617738149        0.0581318918       -0.0023212938        0.0040981947
        0.3085651711        0.0112854543       -0.0686878448        0.0102183497        0.0708863948       -0.0141110804       -0.1904756485        0.0689871905       -0.0021985500        0.0038927307
        0.3534889397        0.0112854543       -0.0574110505        0.0092207112        0.0592549638       -0.0126338226       -0.2167465037        0.0786353957       -0.0018439132        0.0034131114
        0.4008682421        0.0112854543       -0.0424234922        0.0077873050        0.0438060377       -0.0104670060       -0.2400378002        0.0883446614       -0.0013825456        0.0026797009
        0.4499841204        0.0112854543       -0.0237910560        0.0054083459        0.0248855458       -0.0074914756       -0.2568148470        0.0957498085       -0.0010944898        0.0020831297
        0.5000000000        0.0112854543       -0.0004051456        0.0002435689        0.0006392605       -0.0010672672       -0.2635894266        0.0991317266       -0.0002341149        0.0008236984
        0.5500158796        0.0112854543        0.0231629376       -0.0049871748       -0.0238733655        0.0055321512       -0.2578148102        0.0964164522        0.0007104279       -0.0005449763
        0.5991317579        0.0112854543        0.0419976642       -0.0073341391       -0.0430862211        0.0085653330       -0.2414874308        0.0892696320        0.0010885569       -0.0012311939
        0.6465110603        0.0112854543        0.0571697687       -0.0085920874       -0.0587774147        0.0106739238       -0.2186830379        0.0800204228        0.0016076460       -0.0020818363
        0.6914348289        0.0112854543        0.0688076529       -0.0095991929       -0.0709013823        0.0123248847       -0.1923136368        0.0704290650        0.0020937294       -0.0027256918
        0.7333396693        0.0112854543        0.0766836799       -0.0104378592       -0.0790828009        0.0135762194       -0.1636768157        0.0599737595        0.0023991210       -0.0031383601
        0.7718361211        0.0112854543        0.0811086780       -0.0110641214       -0.0834607094        0.0142372478       -0.1353492699        0.0499235863        0.0023520314       -0.0031731263
        0.8067080250        0.0112854543        0.0821784895       -0.0114565758       -0.0844680572        0.0145727318       -0.1076673607        0.0395356544        0.0022895677       -0.0031161560
        0.8378965202        0.0112854543        0.0803857303       -0.0111962318       -0.0825226274        0.0140528116       -0.0829803246        0.0304220076        0.0021368971       -0.0028565798
        0.8654739292        0.0112854543        0.0763463022       -0.0103351029       -0.0783317527        0.0129241202       -0.0622851787        0.0227936832        0.0019854505       -0.0025890173
        0.8896129589        0.0112854543        0.0704338453       -0.0087549669       -0.0721850201        0.0109933098       -0.0448556786        0.0161850815        0.0017511748       -0.0022383428
        0.9105557774        0.0112854543        0.0629192174       -0.0062360770       -0.0641879112        0.0079347902       -0.0305316575        0.0103545839        0.0012686938       -0.0016987133
        0.9285861398        0.0112854543        0.0552271257       -0.0035698009       -0.0563289688        0.0049369573       -0.0193375852        0.0059004865        0.0011018431       -0.0013671565
        0.9440063142        0.0112854543        0.0482975688       -0.0011777242       -0.0492189234        0.0022120474       -0.0108954527        0.0024301189        0.0009213546       -0.0010343233
        0.9571193802        0.0112854543        0.0429336101        0.0002160737       -0.0438479932        0.0005810399       -0.0043990168       -0.0003802392        0.0009143832       -0.0007971136
        0.9682166634        0.0112854543        0.0394267582        0.0004910213       -0.0404138890        0.0001698806        0.0000896547       -0.0024658885        0.0009871309       -0.0006609019
        0.9775696027        0.0112854543        0.0381821759       -0.0009898637       -0.0391655101        0.0013887957        0.0025157899       -0.0033771583        0.0009833342       -0.0003989320
        0.9854251662        0.0112854543        0.0386204488       -0.0038632189       -0.0395369959        0.0040303065        0.0020732823       -0.0023762557        0.0009165471       -0.0001670877
        0.9920039252        0.0112854543        0.0410101129       -0.0087826863       -0.0408227413        0.0076752923       -0.0057167217        0.0054216237       -0.0001873716        0.0011073940
        0.9975000000        0.0112854543        0.0419922402       -0.0123470554       -0.0389288988        0.0081644904       -0.0169219736        0.0156432977       -0.0030633415        0.0041825650
        0.0025000000        0.0185026156       -0.0350558502        0.0040345644        0.0310367993        0.0005337054       -0.0137643757        0.0107997494        0.0040190509       -0.0045682698
        0.0079960748        0.0185026156       -0.0371795014        0.0031177018        0.0355068395       -0.0010556625       -0.0069391429        0.0044405109        0.0016726619       -0.0020620393
        0.0145748338        0.0185026156       -0.0391773596        0.0020969016        0.0385514324       -0.0012328297       -0.0007072546       -0.0019134798        0.0006259271       -0.0008640718
        0.0224303973        0.0185026156       -0.0415236303        0.0015766604        0.0410893640       -0.0010836724        0.0006558963       -0.0037735131        0.0004342662       -0.0004929880
        0.0317833366        0.0185026156       -0.0440017403        0.0009281621        0.0433099819       -0.0004350646       -0.0005661236       -0.0039589869        0.0006917584       -0.0004930976
        0.0428806198        0.0185026156       -0.0483542246        0.0017252579        0.0475909080       -0.0013542324       -0.0032150144       -0.0035825689        0.0007633166       -0.0003710255
        0.0559936858        0.0185026156       -0.0541064752        0.0031964041        0.0531626197       -0.0028627523       -0.0085012074       -0.0018633444        0.0009438555       -0.0003336518
        0.0714138602        0.0185026156       -0.0611427958        0.0054108592        0.0600833673       -0.0051212234       -0.0157248087        0.0005117725        0.0010594286       -0.0002896358
        0.0894442226        0.0185026156       -0.0688385337        0.0077952638        0.0676072039       -0.0075218021       -0.0253576461        0.0035822320        0.0012313298       -0.0002734617
        0.1103870411        0.0185026156       -0.0764876610        0.0102013315        0.0754464472       -0.0102055454       -0.0373431547        0.0073430169        0.0010412138        0.0000042139
        0.1345260708        0.0185026156       -0.0829233545        0.0120557399        0.0821786293       -0.0124489441       -0.0522596629        0.0118737231        0.0007447251        0.0003932042
        0.1621034798        0.0185026156       -0.0872531037        0.0130841653        0.0867252254       -0.0138121530       -0.0699845025        0.0170788061        0.0005278783        0.0007279877
        0.1932919750        0.0185026156       -0.0891841238        0.0133883708        0.0887247740       -0.0143045291       -0.0908949890        0.0230733200        0.0004593498        0.0009161583
        0.2281638789        0.0185026156       -0.0882103240        0.0131306744        0.0881010972       -0.0144488143       -0.1140602718        0.0296079399        0.0001092268        0.0013181398
        0.2666603307        0.0185026156       -0.0830965507        0.0119942063        0.0830031302       -0.0133010261       -0.1390881977        0.0371199210        0.0000934205        0.0013068198
        0.3085651711        0.0185026156       -0.0747183200        0.0110232150        0.0746082303       -0.0122635377       -0.1635427430        0.0441128836        0.0001100897        0.0012403227
        0.3534889397        0.0185026156       -0.0621340171        0.0096264537        0.0616819333       -0.0104794726       -0.1870422130        0.0514063877        0.0004520838        0.0008530189
        0.4008682421        0.0185026156       -0.0456501750        0.0078939368        0.0450197299       -0.0083885553       -0.2061661575        0.0573412197        0.0006304452        0.0004946185
        0.4499841204        0.0185026156       -0.0250677486        0.0050043096        0.0245043923       -0.0053623661       -0.2195722599        0.0617220373        0.0005633562        0.0003580565
        0.5000000000        0.0185026156       -0.0005381524        0.0003471595        0.0007833986       -0.0011203501       -0.2251358562        0.0640218242       -0.0002452462        0.0007731906
        0.5500158796        0.0185026156        0.0241429048       -0.0043611520       -0.0230771550        0.0031789902       -0.2203735846        0.0622088775       -0.0010657497        0.0011821618
        0.5991317579        0.0185026156        0.0449655147       -0.0072265912       -0.0439003367        0.0062400590       -0.2073161528        0.0580029332       -0.0010651780        0.0009865322
        0.6465110603        0.0185026156        0.0617974282       -0.0089270390       -0.0610846124        0.0085189465       -0.1885522618        0.0524034409       -0.0007128158        0.0004080925
        0.6914348289        0.0185026156        0.0746466569       -0.0102082683       -0.0742415198        0.0101705790       -0.1652422904        0.0454681810       -0.0004051372        0.0000376893
        0.7333396693        0.0185026156        0.0833397804       -0.0111944060       -0.0830927175        0.0113691126       -0.1406797651        0.0387014021       -0.0002470629       -0.0001747066
        0.7718361211        0.0185026156        0.0884490162       -0.0121294801       -0.0881878737        0.0123786470       -0.1157291771        0.0316404642       -0.0002611425       -0.0002491670
        0.8067080250        0.0185026156        0.0895961246       -0.0124818866       -0.0890710606        0.0124610209       -0.0923123657        0.0252535471       -0.0005250640        0.0000208657
        0.8378965202        0.0185026156        0.0877470144       -0.0122528404       -0.0872641875        0.0121687025       -0.0712673536        0.0195280097       -0.0004828269        0.0000841380
        0.8654739292        0.0185026156        0.0831181132       -0.0110858227       -0.0824236215        0.0107045351       -0.0534205961        0.0145340105       -0.0006944916        0.0003812876
        0.8896129589        0.0185026156        0.0766500349       -0.0093202880       -0.0757066293        0.0086099291       -0.0382766512        0.0100863236       -0.0009434056        0.0007103589
        0.9105557774        0.0185026156        0.0688513105       -0.0069299739       -0.0676701578        0.0059459750       -0.0262098163        0.0064609556       -0.0011811527        0.0009839989